[Molden Format]
[Atoms] (AU)
C    1    6         0.000000021757       0.000000020110       0.000000000117
O    2    8         0.000000021757       0.000000020110       2.192037283393
O    3    8        -0.000000038081      -0.000000035197      -2.192037283480
[GTO]
  1 0
 s    6  1.00
    13575.3496820000         0.0002224581
     2035.2333680000         0.0017232738
      463.2256235900         0.0089255715
      131.2001959800         0.0357279845
       42.8530158910         0.1107625993
       15.5841857660         0.2429562763
 s    2  1.00
        6.2067138508         0.4144026345
        2.5764896527         0.2374496866
 s    1  1.00
        0.5769633942         1.0000000000
 s    1  1.00
        0.2297283136         1.0000000000
 s    1  1.00
        0.0951644400         1.0000000000
 p    4  1.00
       34.6972322440         0.0053333658
        7.9582622826         0.0358641091
        2.3780826883         0.1421587333
        0.8143320818         0.3427047185
 p    1  1.00
        0.2888754725         1.0000000000
 p    1  1.00
        0.1005682367         1.0000000000
 d    1  1.00
        1.0970000000         1.0000000000
 d    1  1.00
        0.3180000000         1.0000000000
 f    1  1.00
        0.7610000000         1.0000000000

  2 0
 s    6  1.00
    27032.3826310000         0.0002172630
     4052.3871392000         0.0016838662
      922.3272271000         0.0087395616
      261.2407098900         0.0352399688
       85.3546413510         0.1115351912
       31.0350352450         0.2558895396
 s    2  1.00
       12.2608607280         0.3976873090
        4.9987076005         0.2462784943
 s    1  1.00
        1.1703108158         1.0000000000
 s    1  1.00
        0.4647474099         1.0000000000
 s    1  1.00
        0.1850453636         1.0000000000
 p    4  1.00
       63.2749548010         0.0060685103
       14.6270493790         0.0419125758
        4.4501223456         0.1615384109
        1.5275799647         0.3570695131
 p    1  1.00
        0.5293511794         1.0000000000
 p    1  1.00
        0.1747842127         1.0000000000
 d    1  1.00
        2.3140000000         1.0000000000
 d    1  1.00
        0.6450000000         1.0000000000
 f    1  1.00
        1.4280000000         1.0000000000

  3 0
 s    6  1.00
    27032.3826310000         0.0002172630
     4052.3871392000         0.0016838662
      922.3272271000         0.0087395616
      261.2407098900         0.0352399688
       85.3546413510         0.1115351912
       31.0350352450         0.2558895396
 s    2  1.00
       12.2608607280         0.3976873090
        4.9987076005         0.2462784943
 s    1  1.00
        1.1703108158         1.0000000000
 s    1  1.00
        0.4647474099         1.0000000000
 s    1  1.00
        0.1850453636         1.0000000000
 p    4  1.00
       63.2749548010         0.0060685103
       14.6270493790         0.0419125758
        4.4501223456         0.1615384109
        1.5275799647         0.3570695131
 p    1  1.00
        0.5293511794         1.0000000000
 p    1  1.00
        0.1747842127         1.0000000000
 d    1  1.00
        2.3140000000         1.0000000000
 d    1  1.00
        0.6450000000         1.0000000000
 f    1  1.00
        1.4280000000         1.0000000000

[5D]
[9G]

[MO]
 Sym= A
 Ene= -1.89636886062300007e+01
 Spin= Alpha
 Occup=  1.00000000000000000e+00
  1  3.57051945895877203e-05
  2 -1.98431670017106221e-04
  3 -4.09955090572909284e-03
  4  3.36429290169347472e-02
  5 -1.40769526553715155e-03
  6 -1.75970509084351740e-11
  7 -1.62652745814163326e-11
  8  2.40825430477114071e-05
  9 -1.73284320980385636e-10
 10 -1.60164569672575270e-10
 11 -2.99671811276990434e-06
 12  5.06278035351437950e-11
 13  4.67956935410062329e-11
 14 -1.00216935908892992e-04
 15  1.03698910760214626e-03
 16  2.42296691160732983e-11
 17  2.23948005212427237e-11
 18 -2.84498277976802719e-16
 19  2.11008191585238601e-16
 20  1.44403294428576516e-02
 21  3.38912318749762016e-10
 22  3.13248247385011378e-10
 23  6.50886442302808303e-16
 24  6.61044413511467378e-16
 25 -3.40916136689581745e-05
 26  3.95621943971731914e-11
 27  3.65663149784627517e-11
 28  3.15368740226529805e-16
 29 -2.13236007551536721e-16
 30 -1.14986044926402140e-15
 31  1.39544476871799609e-15
 32  3.14526213396303767e-01
 33  4.61864564289313106e-01
 34  2.57463337999714985e-02
 35 -2.89099192602165385e-02
 36 -1.32478206843545223e-03
 37  2.23782364740429506e-11
 38  2.06818699361699555e-11
 39 -2.06219717913226804e-03
 40 -1.32722365148519940e-10
 41 -1.22669473148061195e-10
 42  9.13244838789406023e-03
 43 -7.15751096833987349e-11
 44 -6.61568873339079206e-11
 45  1.45555020632751509e-03
 46  1.78582623884994711e-04
 47 -1.29539403272289434e-11
 48 -1.19731493853805106e-11
 49  2.66497389562313955e-16
 50 -1.03269535836133096e-16
 51 -1.58391355736480595e-03
 52  9.75325570041129174e-11
 53  9.01463535383761126e-11
 54 -2.55281265225291129e-16
 55 -4.67161157398930225e-16
 56  1.84799993980133502e-04
 57 -1.66941466624249059e-11
 58 -1.54300740944430938e-11
 59  1.71625084570873411e-16
 60  3.38121164066299102e-16
 61  6.31799262832371422e-15
 62 -8.35789583092524741e-15
 63  3.01360594651627012e-01
 64  4.42528744685534714e-01
 65  2.47451861917944681e-02
 66 -2.83089861405882888e-02
 67 -1.72137925099878240e-03
 68  7.66950161527215901e-11
 69  7.08864660660239820e-11
 70  1.98629472454724077e-03
 71 -3.83045169826871953e-10
 72 -3.54040343036664416e-10
 73 -9.07116644617214987e-03
 74 -1.14626166788986226e-10
 75 -1.05946911358046873e-10
 76 -1.49735583322328780e-03
 77  1.61917354536625049e-04
 78  2.08020755694638987e-11
 79  1.92271782622556880e-11
 80  1.43110452813089441e-16
 81 -5.35539720660316992e-17
 82 -1.56084093997289159e-03
 83 -1.73845147726410985e-10
 84 -1.60681376288430280e-10
 85 -8.81435460903000115e-16
 86 -1.07549417193623075e-16
 87 -1.84260607720746340e-04
 88 -2.96760842021693935e-11
 89 -2.74279298171887902e-11
 90 -1.40229325856046153e-16
 91 -2.22795446328344264e-16
 92  6.32937240447197368e-15
 93 -7.79886875655415053e-15
 Sym= A
 Ene= -1.89636839051433270e+01
 Spin= Alpha
 Occup=  1.00000000000000000e+00
  1 -7.63278922858639784e-07
  2  4.24192383756383676e-06
  3  8.76370035410344917e-05
  4 -7.19192469489211080e-04
  5  3.00925798382591730e-05
  6  1.57598566429772256e-11
  7  1.45656305130845747e-11
  8  1.12655522647094985e-03
  9  1.78906188360488983e-12
 10  1.65394119040351805e-12
 11 -1.40183076654286213e-04
 12 -6.50978260457585446e-11
 13 -6.01696748122490492e-11
 14 -4.68803732518175906e-03
 15 -2.21679639661207015e-05
 16 -1.38888312883659816e-11
 17 -1.28374149510811961e-11
 18 -4.07273550470782782e-16
 19 -7.39544613706534198e-16
 20 -3.08694154901869851e-04
 21 -1.22769236576044344e-10
 22 -1.13473321254451311e-10
 23  1.92808664539670957e-16
 24  7.60743820915828871e-16
 25 -1.59476834457162090e-03
 26 -5.41886357095075299e-11
 27 -5.00851879883385493e-11
 28  1.34442215208839716e-17
 29 -8.25805037062217803e-17
 30  2.04510016602315477e-16
 31  9.79145396517762797e-17
 32  3.01353184970371890e-01
 33  4.42586860835783580e-01
 34  2.28765946012570304e-02
 35 -1.34439007583448834e-02
 36  9.30874740038825817e-03
 37 -2.69775759122419515e-12
 38 -2.49411128491443505e-12
 39 -1.73204464407260717e-03
 40  6.60068117929249447e-11
 41  6.10094425385227083e-11
 42  1.23877992275850998e-03
 43  5.24131298415474213e-11
 44  4.84442623196040750e-11
 45 -1.00937288099509450e-03
 46  3.86152094210240912e-04
 47  4.76495716924311567e-12
 48  4.40414704853127002e-12
 49  6.17286712886583376e-16
 50 -2.65736913384248703e-16
 51 -5.06043012837169119e-04
 52 -6.09073001095789987e-11
 53 -5.62956070066374129e-11
 54  1.21174377291912964e-15
 55 -9.94236137918172272e-16
 56  8.67126353689840313e-06
 57  1.57941589629582104e-11
 58  1.45988283426635128e-11
 59  6.79691279497130433e-16
 60  3.64084913897690287e-17
 61  6.17675151595418856e-15
 62 -8.19842477492927974e-15
 63 -3.14519113583283216e-01
 64 -4.61920247525550220e-01
 65 -2.39559623345299150e-02
 66  1.46670818437544311e-02
 67 -9.24362877069662484e-03
 68 -4.79060436254274639e-11
 69 -4.42767249405706378e-11
 70 -1.81859017882092630e-03
 71 -1.58333125677094583e-11
 72 -1.46364647642142526e-11
 73  1.62792269528191599e-03
 74 -7.51387457661343128e-11
 75 -6.94468900532147821e-11
 76 -9.46247913582452848e-04
 77 -3.93431038430499093e-04
 78 -1.43952923681488014e-11
 79 -1.33052016535647183e-11
 80 -5.67992330866002095e-16
 81  6.31541656946195289e-16
 82  5.73269152869421064e-04
 83 -2.95776838100730535e-11
 84 -2.73379243940252228e-11
 85 -8.73205942721689325e-16
 86  8.46659578544182948e-16
 87  1.65607627124887043e-05
 88 -1.39589974156604636e-11
 89 -1.29021607822381031e-11
 90  3.01842597319333316e-16
 91  5.28502828526294004e-17
 92 -6.96424284174332582e-15
 93  7.73899995490364354e-15
 Sym= A
 Ene= -1.01585829783741382e+01
 Spin= Alpha
 Occup=  1.00000000000000000e+00
  1  4.67456604380021012e-01
  2  6.08257626330403034e-01
  3  3.80506456246083868e-02
  4 -1.55902143907985825e-02
  5  2.24546252019556559e-03
  6 -5.74217912356658507e-11
  7 -5.30744882736301737e-11
  8  4.97931734131131378e-10
  9 -1.31307882100313681e-10
 10 -1.21366809807177191e-10
 11  4.26836149753122114e-10
 12  7.27903278474801317e-11
 13  6.72787810233295176e-11
 14  2.98519329521351261e-11
 15  4.44543507350806440e-03
 16  1.05094044585737879e-10
 17  9.71358477403823539e-11
 18  2.13570453375474263e-16
 19  2.80293873710609076e-16
 20  9.50437469401297285e-04
 21  2.24688237270687623e-11
 22  2.07687608185044909e-11
 23 -3.21433307241042825e-16
 24  1.15810865550493364e-16
 25  8.05490117301535546e-11
 26 -8.85324560084347085e-11
 27 -8.18300701521622309e-11
 28 -2.81443135647080090e-16
 29  3.34774158729149721e-17
 30  6.84180183151995326e-15
 31 -8.68305450743456727e-15
 32 -9.46144424687192964e-05
 33 -2.76118905138483968e-04
 34  2.49006737622983060e-03
 35 -6.74611415228641362e-03
 36  2.80090088894751699e-03
 37 -1.13635189538235105e-12
 38 -1.05048316951808829e-12
 39 -5.35630171315172056e-04
 40  4.37226131360172321e-11
 41  4.04125079498864641e-11
 42  5.32515695162498470e-03
 43 -1.82052434844931634e-11
 44 -1.68266206434104442e-11
 45 -1.93660915230355708e-03
 46  2.64089278169579864e-05
 47 -2.33272544519657197e-12
 48 -2.15604389137492878e-12
 49 -3.60013066199061079e-16
 50 -2.91929967119126318e-16
 51 -2.79648596440628143e-03
 52 -2.76666385235857091e-11
 53 -2.55722663880546702e-11
 54  5.10017909347035901e-16
 55  3.06080744155120603e-16
 56  6.34852142236053650e-04
 57  3.80371777807258399e-12
 58  3.51596044271157284e-12
 59  1.46307654091171059e-16
 60  1.99116224212148377e-16
 61 -7.72322538695571389e-16
 62  1.96659750658867840e-16
 63 -9.46144410748375010e-05
 64 -2.76118894543206546e-04
 65  2.49006719863811192e-03
 66 -6.74611347908691140e-03
 67  2.80090124556006030e-03
 68  1.34856606913448903e-11
 69  1.24644137498809166e-11
 70  5.35630131343608454e-04
 71 -1.01644018941534058e-10
 72 -9.39460863011079457e-11
 73 -5.32515641720385496e-03
 74  3.46605056728338160e-11
 75  3.20370535889001978e-11
 76  1.93660927965875421e-03
 77  2.64089238616265729e-05
 78  3.58172717977196246e-12
 79  3.31011052239227780e-12
 80  2.38628961846230720e-16
 81 -1.19501023488923064e-16
 82 -2.79648572928084885e-03
 83 -1.04555506420353997e-10
 84 -9.66368728586482488e-11
 85 -2.17452814419888847e-16
 86 -1.08113631072689566e-16
 87 -6.34852080869457058e-04
 88 -3.86467133019637943e-11
 89 -3.57198973160393319e-11
 90 -4.13739574698300168e-16
 91 -3.66660817005774676e-16
 92 -4.88723201248955545e-16
 93  6.49104444002478902e-16
 Sym= A
 Ene= -1.09103853873378953e+00
 Spin= Alpha
 Occup=  1.00000000000000000e+00
  1 -7.49587858253984024e-02
  2 -1.58465582758624796e-01
  3  2.62736786096258890e-01
  4  1.39629350657443807e-01
  5  3.84240931383978595e-03
  6 -2.86691707822695995e-09
  7 -2.64982586189341756e-09
  8  2.63070114988063697e-07
  9 -1.22508233457350488e-09
 10 -1.13231922151390256e-09
 11  1.38802334606107205e-07
 12  1.47019548805750480e-10
 13  1.35888190368241432e-10
 14  9.09140057880850832e-10
 15  3.19346960571145755e-02
 16  7.54959388151153639e-10
 17  6.97793419019358525e-10
 18 -9.55924477118596819e-15
 19  4.88497951135736381e-16
 20  9.39117794448464382e-03
 21  2.22012317921186824e-10
 22  2.05205042807415961e-10
 23  1.15910401617262169e-14
 24 -1.97627369622981703e-17
 25  1.89809286716229422e-08
 26 -6.29134722688657640e-10
 27 -5.81496740622551187e-10
 28 -1.67839214002184124e-15
 29  3.82391248198806575e-16
 30 -6.23327975585247646e-15
 31  6.93914657256018869e-15
 32 -6.17832969961194869e-02
 33 -1.45848205542188719e-01
 34  2.15680142007092152e-01
 35  2.62387465922957641e-01
 36  7.39023715879748438e-02
 37 -1.73267761709286314e-10
 38 -1.60144949433887001e-10
 39 -9.59611931145596675e-02
 40  1.61846601459326736e-10
 41  1.49594135561563392e-10
 42 -6.56250810334010892e-02
 43 -6.20292857051744825e-11
 44 -5.73344260361111704e-11
 45 -8.09465634734414345e-03
 46  5.51786070517740375e-03
 47  1.92271951128156440e-12
 48  1.77672322749827969e-12
 49  1.38861617441884358e-15
 50  3.19090057206720560e-16
 51  8.50872158254237926e-03
 52 -2.13992767257330076e-10
 53 -1.97789001129745148e-10
 54 -4.98348107455921379e-15
 55 -7.12231259994617413e-16
 56 -1.64939205626355280e-03
 57  5.34096334856035399e-11
 58  4.93654673290598216e-11
 59  3.00676517470615624e-15
 60  2.51350942937540034e-16
 61 -2.47136601185886680e-14
 62  3.11839315090098470e-14
 63 -6.17831483083982197e-02
 64 -1.45847854316032005e-01
 65  2.15679613176796237e-01
 66  2.62386869353991803e-01
 67  7.39022265253498067e-02
 68  2.44627813390569011e-09
 69  2.26104572815315547e-09
 70  9.59609780663925882e-02
 71  1.95327620134897000e-09
 72  1.80537548055437102e-09
 73  6.56249622655602077e-02
 74  1.58938050584042188e-10
 75  1.46904367265276640e-10
 76  8.09465537769472193e-03
 77  5.51784826748879121e-03
 78  2.58970114514831255e-10
 79  2.39360537838975362e-10
 80  3.72965125998648123e-15
 81 -4.80516661095259486e-16
 82  8.50870750550607353e-03
 83  6.16296345085240326e-10
 84  5.69632086588921115e-10
 85  8.83857029506728896e-16
 86  1.20507181790879910e-15
 87  1.64938686167371618e-03
 88  1.63698639503510665e-10
 89  1.51303398017738908e-10
 90 -2.70841055773431611e-16
 91  1.04563918729640081e-16
 92 -2.50256426015362724e-14
 93  3.11585447521108482e-14
 Sym= A
 Ene= -1.05200592133821513e+00
 Spin= Alpha
 Occup=  1.00000000000000000e+00
  1  8.42055164427273506e-08
  2  1.78282168665948217e-07
  3 -2.96685258025773620e-07
  4 -1.67566111175879521e-07
  5 -7.04183440088670332e-09
  6  3.40033992151047390e-09
  7  3.14286122522920019e-09
  8  2.49126968601041332e-01
  9  1.80963900010193994e-09
 10  1.67261436800946648e-09
 11  1.32583911783587333e-01
 12  3.00199869377076282e-11
 13  2.77444856448037731e-11
 14  2.19932611890858495e-03
 15 -3.37519049561591062e-08
 16 -7.29383482261898720e-10
 17 -6.74152434267102865e-10
 18 -2.01683353206095772e-15
 19 -1.62499686343571930e-16
 20 -9.96092266929464786e-09
 21 -2.52941174385264825e-10
 22 -2.33789349346110444e-10
 23  1.74340431525035822e-16
 24  5.36755955503706037e-16
 25  1.76206741252896426e-02
 26  5.89112897037404701e-10
 27  5.44506352691328582e-10
 28 -2.09082832493125472e-15
 29 -1.94027069489392995e-16
 30 -4.30875876807094252e-17
 31  1.93927573811640059e-16
 32 -6.75866317527555605e-02
 33 -1.59577107422580411e-01
 34  2.36977330640838008e-01
 35  2.70916510704441560e-01
 36  6.80599753448438427e-02
 37  3.52013382010710291e-10
 38  3.25361443236248354e-10
 39 -9.89798293497207160e-02
 40 -1.62908853883283911e-11
 41 -1.50578476736364994e-11
 42 -5.50761375507934012e-02
 43  2.06097265438258036e-11
 44  1.90515358436161733e-11
 45 -6.02646869489804568e-04
 46  5.85354593119400725e-03
 47 -3.80482800643742870e-11
 48 -3.51680098939362278e-11
 49  1.37790108628125602e-15
 50  8.20693063728332698e-17
 51  6.50271181290290080e-03
 52  1.29532723156587247e-10
 53  1.19725384004345058e-10
 54 -3.84507856972646565e-15
 55 -1.04971142843015397e-15
 56 -2.38081893036339812e-03
 57 -2.81049662724262601e-11
 58 -2.59777981724084981e-11
 59  3.36314931470882785e-15
 60  4.98142036809504723e-17
 61 -2.80980126421133579e-14
 62  3.46772678119892184e-14
 63  6.75867618535933856e-02
 64  1.59577414277262297e-01
 65 -2.36977775452495709e-01
 66 -2.70917061947002713e-01
 67 -6.80601345105252969e-02
 68 -3.05397492854140036e-09
 69 -2.82272687597302586e-09
 70 -9.89800395152346385e-02
 71 -1.48717911247150854e-09
 72 -1.37457191971343280e-09
 73 -5.50762834762180131e-02
 74 -3.70639146974826636e-11
 75 -3.42574629009705597e-11
 76 -6.02664948305217164e-04
 77 -5.85355823546281160e-03
 78 -3.14813882302845739e-10
 79 -2.90976078539359277e-10
 80 -3.97821119656685860e-15
 81  6.52816360297431021e-16
 82 -6.50273104097603798e-03
 83 -1.77924725971548211e-10
 84 -1.64453307569182218e-10
 85 -3.06179005806390419e-15
 86 -1.17351753624673356e-15
 87 -2.38082261523377353e-03
 88 -1.31091735308661628e-10
 89 -1.21165214379722323e-10
 90  4.27299467381856995e-16
 91 -2.74437564337601311e-16
 92  2.77194885419991421e-14
 93 -3.49774068879958999e-14
 Sym= A
 Ene= -5.13911995685851108e-01
 Spin= Alpha
 Occup=  1.00000000000000000e+00
  1 -6.69718055250396321e-02
  2 -1.46585280759355535e-01
  3  2.64620248281189074e-01
  4  2.75793502107568644e-01
  5  8.67436806805093642e-03
  6  1.08185095294718893e-09
  7  9.99939481628304335e-10
  8  2.80158452094492334e-07
  9  1.24178928131114993e-09
 10  1.14776282175692885e-09
 11  1.88574033707008361e-07
 12  1.10405774221939204e-09
 13  1.02045654159545656e-09
 14 -2.79117423863787202e-08
 15  1.23049999103594515e-02
 16  2.90898310253215306e-10
 17  2.68871462610740690e-10
 18 -1.22376453812113949e-14
 19  8.48907988100688974e-16
 20 -5.48084486446761675e-03
 21 -1.29569933530680880e-10
 22 -1.19761056001624632e-10
 23  1.26834709278172369e-14
 24  1.94862932977008155e-16
 25  1.68347195845661083e-08
 26 -2.92911313891400797e-10
 27 -2.70731528550454947e-10
 28 -1.10959322629590181e-15
 29  2.75818903239995341e-18
 30 -3.95508716212638469e-15
 31  3.86302324768033914e-15
 32  4.30762586083478921e-02
 33  1.02977582949697805e-01
 34 -1.54945368060540489e-01
 35 -2.43855590942511191e-01
 36 -1.82410231339197620e-01
 37  1.16437498951019253e-09
 38  1.07620959140643863e-09
 39 -2.44602707171365646e-01
 40  1.20860451420832291e-09
 41  1.11709054580240817e-09
 42 -1.74592242028684619e-01
 43  1.62405678041678023e-10
 44  1.50112995066663328e-10
 45 -7.95355043414914392e-02
 46  7.16095075673818700e-03
 47 -4.44991473211920801e-11
 48 -4.11287383358828524e-11
 49 -1.11321295377926956e-15
 50 -2.99101519943532675e-17
 51  1.00125695610319611e-02
 52 -2.16112023249894341e-10
 53 -1.99750325810425948e-10
 54 -2.04729430146711897e-15
 55  1.25938457661894130e-15
 56 -1.57863981056670572e-03
 57  7.72737996942862511e-11
 58  7.14223327658117075e-11
 59 -1.96359455480842946e-15
 60  4.75912265308723834e-16
 61  2.25517870231721005e-14
 62 -2.80726756866781667e-14
 63  4.30761926873069953e-02
 64  1.02977425254050209e-01
 65 -1.54945134429831322e-01
 66 -2.43855135510271076e-01
 67 -1.82409923828202342e-01
 68  7.84152838183834163e-09
 69  7.24775590816385299e-09
 70  2.44602058994763588e-01
 71  5.97461772818485535e-09
 72  5.52221027772133259e-09
 73  1.74591799521293722e-01
 74  2.33356612808523339e-09
 75  2.15686264865103339e-09
 76  7.95353174117758022e-02
 77  7.16093216045461840e-03
 78  3.83079041171889933e-10
 79  3.54072548708850871e-10
 80 -2.77088174383653100e-15
 81  1.05218978907872079e-15
 82  1.00125481742977997e-02
 83  6.89523131609031209e-10
 84  6.37310176749795015e-10
 85 -3.99991289781800070e-15
 86 -6.44081610393295293e-16
 87  1.57863408688309857e-03
 88  1.82829092001726788e-10
 89  1.68986501536052734e-10
 90  4.24414711474257800e-15
 91 -3.40193993868690614e-16
 92  2.26880087164528028e-14
 93 -2.84204154788671118e-14
 Sym= A
 Ene= -4.70871715985604622e-01
 Spin= Alpha
 Occup=  1.00000000000000000e+00
  1  3.23320746904290214e-10
  2  7.06649488845824487e-10
  3 -1.25052912393045128e-09
  4 -1.63563290422346340e-09
  5 -1.56489330372754837e-09
  6 -1.56598711614914978e-03
  7 -3.03375126849167787e-01
  8  3.84907573643077910e-09
  9 -1.22701974124633036e-03
 10 -2.37707747273521092e-01
 11  3.01583877348048268e-09
 12 -2.98094543706280840e-04
 13 -5.77491788270711251e-02
 14  7.32522325779436561e-10
 15 -3.84069590375284794e-10
 16 -5.56901780836749442e-11
 17 -1.07886982046157667e-08
 18 -3.32623933446770381e-10
 19  3.63624364518243846e-10
 20 -5.03528110010081858e-10
 21 -8.15090620694112322e-11
 22 -1.57899518752272946e-08
 23 -3.15036305481452473e-10
 24  3.44373849662327408e-10
 25  5.14730355065133617e-10
 26 -8.55003139665497713e-05
 27 -1.65637816080835137e-02
 28  3.28550356283993946e-10
 29 -3.59167657204532191e-10
 30 -6.27005824290843132e-09
 31 -4.08887677458892243e-08
 32  2.62946047626401344e-10
 33  6.41122643603143667e-10
 34 -1.08365249182937279e-09
 35 -1.50153636884013699e-09
 36 -1.95758101719080424e-09
 37 -1.31837701145160998e-03
 38 -2.55406183716289870e-01
 39 -2.51941931506317377e-09
 40 -1.05504016715955544e-03
 41 -2.04390535046809291e-01
 42 -1.69157774781275121e-09
 43 -4.80472428026181410e-04
 44 -9.30808320824622476e-02
 45 -6.58776212584585014e-10
 46  7.04525158509069547e-11
 47  4.39746255843548157e-05
 48  8.51910432533127190e-03
 49  5.77819674524827420e-12
 50 -6.35074682553531426e-12
 51  1.07148075733312383e-10
 52  9.36289127345041664e-05
 53  1.81385165861144906e-02
 54 -4.15909589246870080e-11
 55  4.54962826974583979e-11
 56 -5.05161522839995440e-11
 57 -2.05410696050077507e-05
 58 -3.97937475561910888e-03
 59  1.84464876075107870e-11
 60 -2.01625838845625965e-11
 61  5.79880497738567471e-09
 62  3.78156088569505120e-08
 63  2.62830291256768293e-10
 64  6.40848654116902826e-10
 65 -1.08326513081639556e-09
 66 -1.50073432459396059e-09
 67 -1.95711114937563046e-09
 68 -1.31837591106162425e-03
 69 -2.55405970541765670e-01
 70  8.99847517964751039e-09
 71 -1.05503929005161578e-03
 72 -2.04390365126296242e-01
 73  6.87659977725109547e-09
 74 -4.80471989368996182e-04
 75 -9.30807471032963629e-02
 76  3.02005057418315367e-09
 77  4.44797464693913584e-10
 78 -4.39746054356999900e-05
 79 -8.51910042201128870e-03
 80  2.19524043525899096e-10
 81 -2.40014708227304874e-10
 82  9.04209445861403899e-10
 83 -9.36288641088923421e-05
 84 -1.81385071655690878e-02
 85  4.13504172148184881e-10
 86 -4.52011577903412645e-10
 87  2.97816099163219656e-10
 88 -2.05410579588888060e-05
 89 -3.97937249944915576e-03
 90  1.39416669434549181e-10
 91 -1.52414994555976157e-10
 92  5.79880099167537155e-09
 93  3.78155750756024281e-08
 Sym= A
 Ene= -4.70871715985362926e-01
 Spin= Alpha
 Occup=  1.00000000000000000e+00
  1  3.46207416034544452e-10
  2  7.56670135783985360e-10
  3 -1.33905204821610009e-09
  4 -1.75137104133747930e-09
  5 -1.67563366854381899e-09
  6 -3.03375126849216581e-01
  7  1.56598711614568142e-03
  8  4.12080423720578218e-09
  9 -2.37707747278779913e-01
 10  1.22701974121923094e-03
 11  3.22885272176386731e-09
 12 -5.77491788262042144e-02
 13  2.98094543707701307e-04
 14  7.84474997269911815e-10
 15 -4.11258616011976605e-10
 16 -1.07888028368085296e-08
 17  5.56893952740700530e-11
 18  3.63625105777089114e-10
 19  3.32624618623718740e-10
 20 -5.39148694957254637e-10
 21 -1.57904430502787177e-08
 22  8.15054854967637783e-11
 23  3.44392735321133610e-10
 24  3.15016740315242790e-10
 25  5.51124787914341936e-10
 26 -1.65637816095652625e-02
 27  8.55003139589563039e-05
 28 -3.59168533127298713e-10
 29 -3.28548857679050994e-10
 30  4.08887792923413999e-08
 31 -6.27005879219702805e-09
 32  2.81470716342463564e-10
 33  6.86294937077568516e-10
 34 -1.16005784280364092e-09
 35 -1.60723257523154878e-09
 36 -2.09578167338188344e-09
 37 -2.55406183716307189e-01
 38  1.31837701145136777e-03
 39 -2.69692986830491807e-09
 40 -2.04390535045437666e-01
 41  1.05504016717106533e-03
 42 -1.81073827432830924e-09
 43 -9.30808320814598411e-02
 44  4.80472428030774849e-04
 45 -7.05131251496143607e-10
 46  7.54160250474555416e-11
 47  8.51910432546236322e-03
 48 -4.39746255835924522e-05
 49 -6.32236306574744069e-12
 50 -5.81284033280900532e-12
 51  1.14700154152599159e-10
 52  1.81385165846493536e-02
 53 -9.36289127426184303e-05
 54  4.54741587158246168e-11
 55  4.16194743514650042e-11
 56 -5.40844685081346880e-11
 57 -3.97937475526052072e-03
 58  2.05410696071440559e-05
 59 -2.01656394454958123e-11
 60 -1.84433767193023636e-11
 61 -3.78156099063190633e-08
 62  5.79880528986242049e-09
 63  2.81522344522213580e-10
 64  6.86418471441955101e-10
 65 -1.16024025958108269e-09
 66 -1.60756696242572965e-09
 67 -2.09605981758874982e-09
 68 -2.55405970540787508e-01
 69  1.31837591107059862e-03
 70  9.63622648768404049e-09
 71 -2.04390365124834383e-01
 72  1.05503929005735034e-03
 73  7.36390071669923015e-09
 74 -9.30807471016905363e-02
 75  4.80471989380547597e-04
 76  3.23407218868735723e-09
 77  4.76304683620941113e-10
 78 -8.51910042205064437e-03
 79  4.39746054348454489e-05
 80 -2.39986250871173913e-10
 81 -2.19559217852097305e-10
 82  9.68240438446265766e-10
 83 -1.81385071645537438e-02
 84  9.36288641147533493e-05
 85 -4.52033936930822194e-10
 86 -4.13474210621348668e-10
 87  3.18904768812537827e-10
 88 -3.97937249913722126e-03
 89  2.05410579610593990e-05
 90 -1.52410499303887653e-10
 91 -1.39422872781119214e-10
 92 -3.78155832515145177e-08
 93  5.79880070958389458e-09
 Sym= A
 Ene= -4.69751147272664427e-01
 Spin= Alpha
 Occup=  1.00000000000000000e+00
  1 -7.31649024752976050e-08
  2 -1.60306551284391041e-07
  3  2.90681587997882096e-07
  4  3.13100979203335628e-07
  5  1.23982297400333298e-08
  6 -3.58765822474047978e-09
  7 -3.31677180046546577e-09
  8 -2.62869185979337727e-01
  9 -2.32746861332034417e-09
 10 -2.15183746474088698e-09
 11 -1.70537265103912372e-01
 12  5.59299461810590202e-10
 13  5.16802122278970628e-10
 14  4.09739566928169069e-02
 15  9.42588778750044577e-09
 16  2.60015080623026751e-10
 17  2.40326219386189335e-10
 18  1.68759219581997799e-15
 19  3.02330230601246567e-17
 20 -1.16089618998158144e-08
 21 -4.06191373650190075e-10
 22 -3.75432362179085607e-10
 23  4.53410157506226851e-16
 24  2.62925771252252641e-17
 25 -1.50750553084715942e-02
 26 -5.03989121816825435e-10
 27 -4.65869953349583053e-10
 28  3.93514684097266139e-15
 29 -5.16953607520906776e-16
 30  2.52367913873582354e-17
 31 -7.32956529740606576e-17
 32 -3.19596905048916829e-02
 33 -7.63466220494101039e-02
 34  1.10089271803973612e-01
 35  2.17779506734490730e-01
 36  1.42265668805924311e-01
 37 -2.55810460816697577e-09
 38 -2.36504575583698811e-09
 39  2.96943232915525324e-01
 40 -1.72975960543118240e-09
 41 -1.59929384569417641e-09
 42  2.05462858664215153e-01
 43 -1.20135200110418521e-09
 44 -1.11062319477372464e-09
 45  9.61440990212922564e-02
 46 -8.65611274086266341e-03
 47  8.28330775609429929e-11
 48  7.65818538824736288e-11
 49  9.64695604041827140e-16
 50  2.24640310464079900e-16
 51 -1.06452589989021948e-02
 52 -1.09517291269325869e-11
 53 -1.00751210905816523e-11
 54  1.84538869521900715e-15
 55 -3.52506967407418926e-17
 56  2.73819672983875587e-03
 57 -2.65835794517515584e-11
 58 -2.45809597002727003e-11
 59  1.80139573977744540e-15
 60 -4.04933071581447447e-16
 61 -1.68251970791060623e-14
 62  2.14596413438376434e-14
 63  3.19597840705587305e-02
 64  7.63468458283770024e-02
 65 -1.10089606844234675e-01
 66 -2.17780030740675951e-01
 67 -1.42266080382052434e-01
 68  1.06644879312202138e-08
 69  9.85630659579427711e-09
 70  2.96943720846856329e-01
 71  7.33881838773673351e-09
 72  6.78259333791802593e-09
 73  2.05463211098095372e-01
 74  3.82605404077650323e-09
 75  3.53609870940381460e-09
 76  9.61442780770243172e-02
 77  8.65612775000195074e-03
 78  4.92122886569202859e-10
 79  4.54837625116637916e-10
 80 -2.19128942379458096e-15
 81  7.20284263199091160e-16
 82  1.06452822517550932e-02
 83  4.92400212282746431e-10
 84  4.55067917418332240e-10
 85 -2.35085103861009901e-15
 86 -1.96910597716993399e-15
 87  2.73820033380225676e-03
 88  2.09681285031128595e-10
 89  1.93794626970882595e-10
 90  5.09464069348866415e-15
 91 -1.81722538824023980e-16
 92  1.72136548574365254e-14
 93 -2.10563258082662647e-14
 Sym= A
 Ene= -3.34435119462294816e-01
 Spin= Alpha
 Occup=  1.00000000000000000e+00
  1 -1.72513620111192194e-16
  2 -8.43261484767998891e-17
  3  1.28102711498539877e-14
  4 -9.69244107943323371e-14
  5 -6.86257515562215928e-15
  6 -3.23775259809351848e-10
  7  1.27700056393456098e-07
  8  1.12075173963580435e-09
  9 -2.80648957375182030e-10
 10  1.10691447806264830e-07
 11 -1.27929228973792592e-09
 12 -1.18032032691372305e-10
 13  4.65510903144652499e-08
 14 -2.82075354782223910e-09
 15  7.97716853045688053e-10
 16  9.28169670411543347e-05
 17 -3.66082505271647096e-02
 18  4.63097929168978648e-10
 19 -4.98495732558112488e-10
 20  1.13558461385152414e-09
 21  1.32131281922276091e-04
 22 -5.21143409984730702e-02
 23  6.59251242355826531e-10
 24 -7.09642077459428282e-10
 25 -3.32370617832596732e-10
 26 -1.02909275198095619e-11
 27  4.05890211470342693e-09
 28 -2.08350593426840457e-10
 29  2.24240531881376241e-10
 30  1.04615719171519871e-15
 31  5.31474603534254446e-15
 32  7.97022542522521875e-12
 33 -3.97083609012120272e-13
 34  2.36627951590403213e-10
 35 -6.46134594239760238e-10
 36  2.16789556895952574e-09
 37  8.87692131662558824e-04
 38 -3.50117623780475506e-01
 39 -3.16359524147877519e-09
 40  7.30611039847831783e-04
 41 -2.88162744779843827e-01
 42 -2.61661697823145621e-09
 43  4.71040614469121028e-04
 44 -1.85784704809063700e-01
 45 -1.67427358234439723e-09
 46  9.29277267097651180e-11
 47 -1.58027032804738408e-05
 48  6.23279707502026516e-03
 49  1.46709651850496128e-11
 50 -1.58271226876700830e-11
 51  1.40560953925465468e-10
 52 -4.18285688500214493e-05
 53  1.64977457953163070e-02
 54  5.03070021926134711e-11