
    -----------------------------------------------------------------------
          Psi4: An Open-Source Ab Initio Electronic Structure Package
                               Psi4 1.3.2 release

                         Git: Rev {HEAD} ecbda83 


    R. M. Parrish, L. A. Burns, D. G. A. Smith, A. C. Simmonett,
    A. E. DePrince III, E. G. Hohenstein, U. Bozkaya, A. Yu. Sokolov,
    R. Di Remigio, R. M. Richard, J. F. Gonthier, A. M. James,
    H. R. McAlexander, A. Kumar, M. Saitow, X. Wang, B. P. Pritchard,
    P. Verma, H. F. Schaefer III, K. Patkowski, R. A. King, E. F. Valeev,
    F. A. Evangelista, J. M. Turney, T. D. Crawford, and C. D. Sherrill,
    J. Chem. Theory Comput. 13(7) pp 3185--3197 (2017).
    (doi: 10.1021/acs.jctc.7b00174)


                         Additional Contributions by
    P. Kraus, H. Kruse, M. H. Lechner, M. C. Schieber, R. A. Shaw,
    A. Alenaizan, R. Galvelis, Z. L. Glick, S. Lehtola, and J. P. Misiewicz

    -----------------------------------------------------------------------


    Psi4 started on: Wednesday, 05 February 2020 01:52PM

    Process ID: 1468
    Host:       rh05314.villa-bosch.de
    PSIDATADIR: /media/miniconda3/envs/p4env/share/psi4
    Memory:     500.0 MiB
    Threads:    1
    
  ==> Input File <==

--------------------------------------------------------------------------

# PYTHONPATH must include directory above plugin directory.
#     Define either externally or here, then import plugin.

molecule {
  C    0.00000001055502      0.00000000005674     -0.00000000975578
  O   -0.00000000527751      1.15997617530518      0.00000000487789
  O   -0.00000000527751     -1.15997617536192      0.00000000487789
symmetry c1
}

set {
  basis def2-TZVP
}


set scf {
 reference uks
}

energy('CAM-B3LYP')
--------------------------------------------------------------------------

*** tstart() called on rh05314.villa-bosch.de
*** at Wed Feb  5 13:52:13 2020

   => Loading Basis Set <=

    Name: DEF2-TZVP
    Role: ORBITAL
    Keyword: BASIS
    atoms 1   entry C          line   123 file /media/miniconda3/envs/p4env/share/psi4/basis/def2-tzvp.gbs 
    atoms 2-3 entry O          line   189 file /media/miniconda3/envs/p4env/share/psi4/basis/def2-tzvp.gbs 


         ---------------------------------------------------------
                                   SCF
               by Justin Turney, Rob Parrish, Andy Simmonett
                          and Daniel G. A. Smith
                              UKS Reference
                        1 Threads,    500 MiB Core
         ---------------------------------------------------------

  ==> Geometry <==

    Molecular point group: c1
    Full point group: C_inf_v

    Geometry (in Angstrom), charge = 0, multiplicity = 1:

       Center              X                  Y                   Z               Mass       
    ------------   -----------------  -----------------  -----------------  -----------------
         C            0.000000011514     0.000000010642     0.000000000062    12.000000000000
         O            0.000000011514     0.000000010642     1.159976175310    15.994914619570
         O           -0.000000020151    -0.000000018626    -1.159976175357    15.994914619570

  Running in c1 symmetry.

  Rotational constants: A = ************  B =      0.39164  C =      0.39164 [cm^-1]
  Rotational constants: A = ************  B =  11741.05544  C =  11741.05544 [MHz]
  Nuclear repulsion =   58.393167382323995

  Charge       = 0
  Multiplicity = 1
  Electrons    = 22
  Nalpha       = 11
  Nbeta        = 11

  ==> Algorithm <==

  SCF Algorithm Type is DF.
  DIIS enabled.
  MOM disabled.
  Fractional occupation disabled.
  Guess Type is SAD.
  Energy threshold   = 1.00e-06
  Density threshold  = 1.00e-06
  Integral threshold = 0.00e+00

  ==> Primary Basis <==

  Basis Set: DEF2-TZVP
    Blend: DEF2-TZVP
    Number of shells: 33
    Number of basis function: 93
    Number of Cartesian functions: 108
    Spherical Harmonics?: true
    Max angular momentum: 3

  ==> DFT Potential <==

   => Composite Functional: CAM-B3LYP <= 

    CAM-B3LYP Hyb-GGA Exchange-Correlation Functional

    T. Yanai, D. P. Tew, and N. C. Handy, Chem. Phys. Lett. 393, 51 (2004)

    Deriv               =              1
    GGA                 =           TRUE
    Meta                =          FALSE

    Exchange Hybrid     =           TRUE
    MP2 Hybrid          =          FALSE

   => Exchange Functionals <=

    0.3500         Becke 88 [omega = 0.3300]
    0.4600   Short-range recipe for exchange GGA functionals [omega = 0.3300]

   => Exact (HF) Exchange <=

    0.4600            HF,LR [omega = 0.3300]
    0.1900               HF 

   => Correlation Functionals <=

    0.1900   Vosko, Wilk & Nusair (VWN5)
    0.8100   Lee, Yang & Parr

   => Molecular Quadrature <=

    Radial Scheme          =       TREUTLER
    Pruning Scheme         =           FLAT
    Nuclear Scheme         =       TREUTLER

    BS radius alpha        =              1
    Pruning alpha          =              1
    Radial Points          =             75
    Spherical Points       =            302
    Total Points           =          66112
    Total Blocks           =            557
    Max Points             =            251
    Max Functions          =             92

   => Loading Basis Set <=

    Name: (DEF2-TZVP AUX)
    Role: JKFIT
    Keyword: DF_BASIS_SCF
    atoms 1   entry C          line   203 file /media/miniconda3/envs/p4env/share/psi4/basis/def2-tzvp-jkfit.gbs 
    atoms 2-3 entry O          line   323 file /media/miniconda3/envs/p4env/share/psi4/basis/def2-tzvp-jkfit.gbs 

  ==> Pre-Iterations <==

   -------------------------------------------------------
    Irrep   Nso     Nmo     Nalpha   Nbeta   Ndocc  Nsocc
   -------------------------------------------------------
     A         93      93       0       0       0       0
   -------------------------------------------------------
    Total      93      93      11      11      11       0
   -------------------------------------------------------

  ==> Integral Setup <==

  ==> DiskDFJK: Density-Fitted J/K Matrices <==

    J tasked:                  Yes
    K tasked:                  Yes
    wK tasked:                 Yes
    Omega:               3.300E-01
    OpenMP threads:              1
    Integrals threads:           1
    Memory [MiB]:              219
    Algorithm:                Core
    Integral Cache:           NONE
    Schwarz Cutoff:          1E-12
    Fitting Condition:       1E-10

   => Auxiliary Basis Set <=

  Basis Set: (DEF2-TZVP AUX)
    Blend: DEF2-TZVP-JKFIT
    Number of shells: 75
    Number of basis function: 229
    Number of Cartesian functions: 275
    Spherical Harmonics?: true
    Max angular momentum: 4

  Cached 100.0% of DFT collocation blocks in 0.152 [GiB].

  Minimum eigenvalue in the overlap matrix is 4.7460062642E-04.
  Using Symmetric Orthogonalization.

  SCF Guess: Superposition of Atomic Densities via on-the-fly atomic UHF.

  ==> Iterations <==

                           Total Energy        Delta E     RMS |[F,P]|

   @DF-UKS iter SAD:  -188.01247793373074   -1.88012e+02   0.00000e+00 
   @DF-UKS iter   1:  -188.47337320120300   -4.60895e-01   6.98148e-03 DIIS
   @DF-UKS iter   2:  -188.37854064942593    9.48326e-02   9.08750e-03 DIIS
   @DF-UKS iter   3:  -188.60239749508054   -2.23857e-01   6.09968e-04 DIIS
   @DF-UKS iter   4:  -188.60363059447309   -1.23310e-03   7.99139e-05 DIIS
   @DF-UKS iter   5:  -188.60365019674276   -1.96023e-05   5.90138e-06 DIIS
   @DF-UKS iter   6:  -188.60365030926840   -1.12526e-07   5.99056e-07 DIIS
  Energy and wave function converged.


  ==> Post-Iterations <==

   @Spin Contamination Metric:   7.460698725E-14
   @S^2 Expected:                0.000000000E+00
   @S^2 Observed:                7.460698725E-14
   @S   Expected:                0.000000000E+00
   @S   Observed:                0.000000000E+00

    Orbital Energies [Eh]
    ---------------------

    Alpha Occupied:                                                       

       1A    -19.286559     2A    -19.286542     3A    -10.444266  
       4A     -1.252560     5A     -1.210427     6A     -0.643702  
       7A     -0.600773     8A     -0.600773     9A     -0.600481  
      10A     -0.446710    11A     -0.446710  

    Alpha Virtual:                                                        

      12A      0.057019    13A      0.080248    14A      0.080248  
      15A      0.199610    16A      0.220527    17A      0.220527  
      18A      0.344097    19A      0.399798    20A      0.459137  
      21A      0.472605    22A      0.472605    23A      0.637999  
      24A      0.637999    25A      0.638370    26A      0.638370  
      27A      0.760044    28A      0.860867    29A      0.998757  
      30A      1.032359    31A      1.032359    32A      1.330283  
      33A      1.353363    34A      1.353363    35A      1.392251  
      36A      1.445640    37A      1.445640    38A      1.720338  
      39A      1.720338    40A      1.737646    41A      1.960677  
      42A      1.960677    43A      2.062813    44A      2.062813  
      45A      2.285383    46A      2.479679    47A      2.639614  
      48A      2.639614    49A      2.735524    50A      2.735524  
      51A      2.794227    52A      2.794227    53A      2.889759  
      54A      2.889759    55A      2.931971    56A      2.972480  
      57A      2.972480    58A      3.090729    59A      3.363924  
      60A      3.401956    61A      3.401956    62A      3.669595  
      63A      3.871809    64A      3.871809    65A      4.876382  
      66A      4.888862    67A      5.131860    68A      5.131860  
      69A      5.201040    70A      5.201040    71A      5.255133  
      72A      5.255133    73A      5.856700    74A      5.856700  
      75A      6.072865    76A      6.191996    77A      6.191996  
      78A      6.333118    79A      6.333131    80A      6.345714  
      81A      6.345725    82A      6.502647    83A      6.502647  
      84A      6.790731    85A      6.790731    86A      6.918523  
      87A      7.064328    88A      7.064328    89A      7.429662  
      90A      7.581788    91A     23.977327    92A     43.896895  
      93A     44.059090  

    Beta Occupied:                                                        

       1A    -19.286559     2A    -19.286542     3A    -10.444266  
       4A     -1.252560     5A     -1.210427     6A     -0.643702  
       7A     -0.600773     8A     -0.600773     9A     -0.600481  
      10A     -0.446710    11A     -0.446710  

    Beta Virtual:                                                         

      12A      0.057019    13A      0.080248    14A      0.080248  
      15A      0.199610    16A      0.220527    17A      0.220527  
      18A      0.344097    19A      0.399798    20A      0.459137  
      21A      0.472605    22A      0.472605    23A      0.637999  
      24A      0.637999    25A      0.638370    26A      0.638370  
      27A      0.760044    28A      0.860867    29A      0.998757  
      30A      1.032359    31A      1.032359    32A      1.330283  
      33A      1.353363    34A      1.353363    35A      1.392251  
      36A      1.445640    37A      1.445640    38A      1.720338  
      39A      1.720338    40A      1.737646    41A      1.960677  
      42A      1.960677    43A      2.062813    44A      2.062813  
      45A      2.285383    46A      2.479679    47A      2.639614  
      48A      2.639614    49A      2.735524    50A      2.735524  
      51A      2.794227    52A      2.794227    53A      2.889759  
      54A      2.889759    55A      2.931971    56A      2.972480  
      57A      2.972480    58A      3.090729    59A      3.363924  
      60A      3.401956    61A      3.401956    62A      3.669595  
      63A      3.871809    64A      3.871809    65A      4.876382  
      66A      4.888862    67A      5.131860    68A      5.131860  
      69A      5.201040    70A      5.201040    71A      5.255133  
      72A      5.255133    73A      5.856700    74A      5.856700  
      75A      6.072865    76A      6.191996    77A      6.191996  
      78A      6.333118    79A      6.333131    80A      6.345714  
      81A      6.345725    82A      6.502647    83A      6.502647  
      84A      6.790731    85A      6.790731    86A      6.918523  
      87A      7.064328    88A      7.064328    89A      7.429662  
      90A      7.581788    91A     23.977327    92A     43.896895  
      93A     44.059090  

    Final Occupation by Irrep:
              A 
    DOCC [    11 ]
    SOCC [     0 ]

  @DF-UKS Final Energy:  -188.60365030926840

   => Energetics <=

    Nuclear Repulsion Energy =             58.3931673823239947
    One-Electron Energy =                -372.9160978995589630
    Two-Electron Energy =                 142.5662998190021824
    DFT Exchange-Correlation Energy =     -16.6470196110356099
    Empirical Dispersion Energy =           0.0000000000000000
    VV10 Nonlocal Energy =                  0.0000000000000000
    Total Energy =                       -188.6036503092683745

  UHF NO Occupations:
  HONO-2 :    9  A 2.0000000
  HONO-1 :   10  A 2.0000000
  HONO-0 :   11  A 2.0000000
  LUNO+0 :   12  A 0.0000000
  LUNO+1 :   13  A 0.0000000
  LUNO+2 :   14  A 0.0000000
  LUNO+3 :   15  A 0.0000000


Computation Completed


Properties will be evaluated at   0.000000,   0.000000,   0.000000 [a0]

Properties computed using the SCF density matrix

  Nuclear Dipole Moment: [e a0]
     X:    -0.0000      Y:    -0.0000      Z:    -0.0000

  Electronic Dipole Moment: [e a0]
     X:     0.0000      Y:     0.0000      Z:     0.0000

  Dipole Moment: [e a0]
     X:     0.0000      Y:     0.0000      Z:     0.0000     Total:     0.0000

  Dipole Moment: [D]
     X:     0.0000      Y:     0.0000      Z:     0.0000     Total:     0.0000


*** tstop() called on rh05314.villa-bosch.de at Wed Feb  5 13:52:16 2020
Module time:
	user time   =       2.40 seconds =       0.04 minutes
	system time =       0.07 seconds =       0.00 minutes
	total time  =          3 seconds =       0.05 minutes
Total time:
	user time   =       2.40 seconds =       0.04 minutes
	system time =       0.07 seconds =       0.00 minutes
	total time  =          3 seconds =       0.05 minutes

    Psi4 stopped on: Wednesday, 05 February 2020 01:52PM
    Psi4 wall time for execution: 0:00:02.50

*** Psi4 exiting successfully. Buy a developer a beer!
