[Molden Format]
[Atoms] (AU)
C    1    6         0.000000021757       0.000000020110       0.000000000117
O    2    8         0.000000021757       0.000000020110       2.192037283393
O    3    8        -0.000000038081      -0.000000035197      -2.192037283480
[GTO]
  1 0
 s    6  1.00
    13575.3496820000         0.0002224581
     2035.2333680000         0.0017232738
      463.2256235900         0.0089255715
      131.2001959800         0.0357279845
       42.8530158910         0.1107625993
       15.5841857660         0.2429562763
 s    2  1.00
        6.2067138508         0.4144026345
        2.5764896527         0.2374496866
 s    1  1.00
        0.5769633942         1.0000000000
 s    1  1.00
        0.2297283136         1.0000000000
 s    1  1.00
        0.0951644400         1.0000000000
 p    4  1.00
       34.6972322440         0.0053333658
        7.9582622826         0.0358641091
        2.3780826883         0.1421587333
        0.8143320818         0.3427047185
 p    1  1.00
        0.2888754725         1.0000000000
 p    1  1.00
        0.1005682367         1.0000000000
 d    1  1.00
        1.0970000000         1.0000000000
 d    1  1.00
        0.3180000000         1.0000000000
 f    1  1.00
        0.7610000000         1.0000000000

  2 0
 s    6  1.00
    27032.3826310000         0.0002172630
     4052.3871392000         0.0016838662
      922.3272271000         0.0087395616
      261.2407098900         0.0352399688
       85.3546413510         0.1115351912
       31.0350352450         0.2558895396
 s    2  1.00
       12.2608607280         0.3976873090
        4.9987076005         0.2462784943
 s    1  1.00
        1.1703108158         1.0000000000
 s    1  1.00
        0.4647474099         1.0000000000
 s    1  1.00
        0.1850453636         1.0000000000
 p    4  1.00
       63.2749548010         0.0060685103
       14.6270493790         0.0419125758
        4.4501223456         0.1615384109
        1.5275799647         0.3570695131
 p    1  1.00
        0.5293511794         1.0000000000
 p    1  1.00
        0.1747842127         1.0000000000
 d    1  1.00
        2.3140000000         1.0000000000
 d    1  1.00
        0.6450000000         1.0000000000
 f    1  1.00
        1.4280000000         1.0000000000

  3 0
 s    6  1.00
    27032.3826310000         0.0002172630
     4052.3871392000         0.0016838662
      922.3272271000         0.0087395616
      261.2407098900         0.0352399688
       85.3546413510         0.1115351912
       31.0350352450         0.2558895396
 s    2  1.00
       12.2608607280         0.3976873090
        4.9987076005         0.2462784943
 s    1  1.00
        1.1703108158         1.0000000000
 s    1  1.00
        0.4647474099         1.0000000000
 s    1  1.00
        0.1850453636         1.0000000000
 p    4  1.00
       63.2749548010         0.0060685103
       14.6270493790         0.0419125758
        4.4501223456         0.1615384109
        1.5275799647         0.3570695131
 p    1  1.00
        0.5293511794         1.0000000000
 p    1  1.00
        0.1747842127         1.0000000000
 d    1  1.00
        2.3140000000         1.0000000000
 d    1  1.00
        0.6450000000         1.0000000000
 f    1  1.00
        1.4280000000         1.0000000000

[5D]
[9G]

[MO]
 Sym= A
 Ene= -1.88287198548638735e+01
 Spin= Alpha
 Occup=  1.00000000000000000e+00
  1 -5.79042680563576756e-05
  2  3.23679704696418300e-04
  3  5.43333727120123844e-03
  4 -4.49458743781227868e-02
  5  2.00130333685048095e-03
  6  2.52985116071709575e-11
  7  2.33834408317299342e-11
  8  3.34510127470733363e-06
  9  2.34537734073525341e-10
 10  2.16779875256843599e-10
 11 -1.58571606272392978e-06
 12 -7.54406535972381757e-11
 13 -6.97297375138953627e-11
 14 -1.48551775114589190e-05
 15 -1.53813882018651342e-03
 16 -3.64061549713594242e-11
 17 -3.36493171025962273e-11
 18  2.63148082441019874e-16
 19 -2.37767128554020712e-16
 20 -1.93754223750439020e-02
 21 -4.58381992018532863e-10
 22 -4.23671579895436722e-10
 23 -6.37230480427184663e-16
 24 -6.33789753802889806e-16
 25 -4.58814613941746944e-06
 26 -4.86018673461577776e-11
 27 -4.49214714402915876e-11
 28 -3.09806217607667473e-16
 29  2.06725500416771886e-16
 30  6.14133136535287217e-16
 31 -7.05935391629451000e-16
 32 -3.07127038993194712e-01
 33 -4.50456341107030755e-01
 34 -2.98120441411171347e-02
 35  3.78056017621540008e-02
 36  1.91670478705915741e-03
 37 -2.85628266389410454e-11
 38 -2.63981741029432216e-11
 39  2.31092734334034655e-03
 40  1.75753551095477608e-10
 41  1.62442319273291490e-10
 42 -1.20011297250607052e-02
 43  1.01117642822357172e-10
 44  9.34624366422141001e-11
 45 -1.97930491898699965e-03
 46 -1.91469008270504445e-04
 47  1.89180070695181755e-11
 48  1.74856160494192321e-11
 49 -3.44258512271260727e-16
 50  1.00682418288627513e-16
 51  2.11080629111516215e-03
 52 -1.31227867141977473e-10
 53 -1.21290251656703107e-10
 54  2.73015179142402910e-16
 55  4.36687168670397100e-16
 56 -2.82754950330722180e-04
 57  2.22731545421748371e-11
 58  2.05866583903390153e-11
 59 -1.65604322661699135e-16
 60 -3.39514346746650778e-16
 61 -1.36348883215246911e-15
 62  2.05756942554306026e-15
 63 -3.08500270579100899e-01
 64 -4.52470861255064527e-01
 65 -2.99339891166677807e-02
 66  3.78866058208140524e-02
 67  1.85842564356809023e-03
 68 -9.18639656322775777e-11
 69 -8.49067388161884402e-11
 70 -2.31957955490905837e-03
 71  5.03172955751624138e-10
 72  4.65071777418113189e-10
 73  1.20078261615611647e-02
 74  1.54669424273830023e-10
 75  1.42958093838062478e-10
 76  1.97319694021910611e-03
 77 -1.93626587552099549e-04
 78 -2.80497804779182313e-11
 79 -2.59260711124970785e-11
 80 -4.63310668890352956e-16
 81  6.98777905687811417e-17
 82  2.11372503720324342e-03
 83  2.30818972256871438e-10
 84  2.13341035596014670e-10
 85  8.70807304842035471e-16
 86  1.20169239839552646e-16
 87  2.82892777708160053e-04
 88  4.10990906730465208e-11
 89  3.79859275609725566e-11
 90  1.75526450788876276e-16
 91  2.20233241899456329e-16
 92 -1.65850322875341660e-15
 93  1.84477992793522283e-15
 Sym= A
 Ene= -1.88287101649328363e+01
 Spin= Alpha
 Occup=  1.00000000000000000e+00
  1  1.29167292204641209e-07
  2 -7.22033707632828811e-07
  3 -1.21201553249647220e-05
  4  1.00260882266584828e-04
  5 -4.46430152686836675e-06
  6  2.04117005965640306e-11
  7  1.88652555230073661e-11
  8  1.49958122290399414e-03
  9 -1.02265830727152940e-11
 10 -9.45215293038781986e-12
 11 -7.10857975029684881e-04
 12 -9.07268383626162736e-11
 13 -8.38575213649689712e-11
 14 -6.65944456499604088e-03
 15  3.43113180681622300e-06
 16 -1.92971860654511488e-11
 17 -1.78366807723755861e-11
 18 -4.03104593454548314e-16
 19 -7.35338697993635895e-16
 20  4.32208011133355637e-05
 21 -1.47710304821119622e-10
 22 -1.36525771157762382e-10
 23  2.00701263342376225e-16
 24  7.76300740819375206e-16
 25 -2.05682716300191384e-03
 26 -6.86585096338911449e-11
 27 -6.34594290657156156e-11
 28  6.34707555723427812e-17
 29 -7.33742449088614422e-17
 30  1.76126088241643344e-16
 31  1.32137141734119313e-16
 32  3.08489919871202944e-01
 33  4.52552124081983920e-01
 34  2.74000580589602027e-02
 35 -1.82411279936242031e-02
 36  1.30587996531528906e-02
 37 -4.15790633348873656e-12
 38 -3.84376902610328539e-12
 39 -1.94452313841615623e-03
 40  8.23066634831300919e-11
 41  7.60752502181745300e-11
 42  1.52775803052608290e-03
 43  7.02230612709855905e-11
 44  6.49053974929839391e-11
 45 -1.36466740346924929e-03
 46  4.84042152786808607e-04
 47  5.30332635708222639e-12
 48  4.90174832247565160e-12
 49  7.21692693774249788e-16
 50 -2.73588062572165516e-16
 51 -6.58936794534031606e-04
 52 -7.79364335058364351e-11
 53 -7.20353960434297310e-11
 54  1.20098773263376816e-15
 55 -1.00402616724292400e-15
 56  3.15244090573170904e-05
 57  2.04541521132195551e-11
 58  1.89059928514106543e-11
 59  7.06937744785218732e-16
 60  4.83240093850924408e-17
 61  1.50632920809154008e-15
 62 -2.28003487028658449e-15
 63 -3.07116642066544099e-01
 64 -4.50537967331266387e-01
 65 -2.72667825764002780e-02
 66  1.80722812642106073e-02
 67 -1.30672208888564841e-02
 68 -4.85154164479826095e-11
 69 -4.48399817581892831e-11
 70 -1.93419384713799805e-03
 71 -4.28450955563369793e-11
 72 -3.96028326023582252e-11
 73  1.47420118681582351e-03
 74 -1.08168013045339472e-10
 75 -9.99752915912848989e-11
 76 -1.37348426886236457e-03
 77 -4.83183117209880729e-04
 78 -1.74582550909542319e-11
 79 -1.61362202556163587e-11
 80 -8.76730074171247617e-16
 81  6.32687338750046462e-16
 82  6.49513117426692393e-04
 83 -4.78102454094322633e-11
 84 -4.41899385723683303e-11
 85 -8.65829552075415627e-16
 86  8.37821010116635146e-16
 87  3.02626159103824752e-05
 88 -1.85298110825978264e-11
 89 -1.71269126037193801e-11
 90  3.33293231555403800e-16
 91  5.06519506543421446e-17
 92 -2.01796236355163336e-15
 93  1.46194773808841178e-15
 Sym= A
 Ene= -1.00538492871726906e+01
 Spin= Alpha
 Occup=  1.00000000000000000e+00
  1  4.66919940436590852e-01
  2  6.06098608299652564e-01
  3  4.93932432637234770e-02
  4 -1.50253323268282456e-02
  5  3.44217449040413971e-03
  6 -1.02007463324775660e-10
  7 -9.42840741684759039e-11
  8 -1.06001770299436871e-10
  9 -2.42508961331685763e-10
 10 -2.24147630105077669e-10
 11 -9.50446176164644925e-11
 12  1.01977673470330128e-10
 13  9.42560343477642466e-11
 14 -7.30602332263351008e-12
 15  7.17884456850682601e-03
 16  1.69714014294725931e-10
 17  1.56862682895055951e-10
 18 -1.05820898448783211e-16
 19  2.79673524736282195e-16
 20  2.88399661126738371e-03
 21  6.81796519175373277e-11
 22  6.30183493954330999e-11
 23 -3.55920770995698738e-16
 24  1.14511990032075674e-16
 25 -1.95729556668644955e-11
 26 -1.29652356060027414e-10
 27 -1.19836346622341270e-10
 28 -2.04291933131039479e-16
 29  3.08440885099330446e-17
 30  5.48500208362576605e-16
 31 -6.99958254459495342e-16
 32 -8.92609165573028559e-05
 33 -3.69030536583687106e-04
 34  4.56678066046140810e-03
 35 -1.26418073923799008e-02
 36  2.10997152690656697e-03
 37 -1.79356935894175460e-13
 38 -1.65933700004165964e-13
 39 -1.01122464335423622e-03
 40  5.45334994483876444e-11
 41  5.04047886192088853e-11
 42  9.84485697983302453e-03
 43 -2.63739461661403844e-11
 44 -2.43767942777622525e-11
 45 -1.98661947332792006e-03
 46  2.84412285103457919e-05
 47 -4.13013278304988855e-12
 48 -3.81737961072041241e-12
 49 -3.42168331957261430e-16
 50 -2.96571591416201618e-16
 51 -5.17852180913107134e-03
 52 -3.48955641723033779e-11
 53 -3.22538010976027324e-11
 54  4.93563344408657901e-16
 55  3.11496388513708295e-16
 56  1.46792818900105836e-03
 57  3.44846082293770070e-12
 58  3.18761534458387726e-12
 59  1.39395766927485731e-16
 60  2.02752705761860831e-16
 61 -4.78502091513958088e-16
 62 -1.79048334492620590e-16
 63 -8.92609166973274581e-05
 64 -3.69030538789803092e-04
 65  4.56678069951906018e-03
 66 -1.26418075372674143e-02
 67  2.10997144442190334e-03
 68  2.74254752808771333e-11
 69  2.53486708627114930e-11
 70  1.01122465288683164e-03
 71 -2.14212066985890975e-10
 72 -1.97990289882724225e-10
 73 -9.84485709637066865e-03
 74  2.78569719190051189e-11
 75  2.57486959440162692e-11
 76  1.98661944396173696e-03
 77  2.84412301264646144e-05
 78  5.47526665177338763e-12
 79  5.06025453593060913e-12
 80  2.50649830028316676e-16
 81 -1.17246882873703479e-16
 82 -5.17852186176171944e-03
 83 -2.09953012885693162e-10
 84 -1.94053510965815839e-10
 85 -2.06143889105479235e-16
 86 -1.10431819725348012e-16
 87 -1.46792820365019379e-03
 88 -9.47066314141111737e-11
 89 -8.75348763328138488e-11
 90 -4.07825232304407247e-16
 91 -3.70619996525483240e-16
 92 -1.93207898521423901e-16
 93  2.76820506531436962e-16
 Sym= A
 Ene= -1.07142312784086569e+00
 Spin= Alpha
 Occup=  1.00000000000000000e+00
  1  7.65915168639539484e-02
  2  1.59500552628861619e-01
  3 -2.67051735190631190e-01
  4 -1.23168182993345601e-01
  5 -7.16264462318005023e-03
  6  2.95601622128658308e-09
  7  2.73217869139505636e-09
  8  6.08979671050438974e-08
  9  1.13485728522714871e-09
 10  1.04892677386264322e-09
 11  3.10081360434446631e-08
 12 -9.60576223409784400e-11
 13 -8.87851611689642444e-11
 14  1.17904516139588520e-09
 15 -3.17316211203542420e-02
 16 -7.50159542132073684e-10
 17 -6.93356927485969450e-10
 18  1.00212557180625898e-14
 19 -4.79604039686381352e-16
 20 -3.11785358073862588e-03
 21 -7.37063110164963658e-11
 22 -6.81290253560191052e-11
 23 -1.35894921576722173e-15
 24  3.76262410717020276e-17
 25  4.40217607802573050e-09
 26  5.98679105768964663e-10
 27  5.53347471832683226e-10
 28  8.50638464978718834e-16
 29 -3.87291493822519002e-16
 30  7.89236736256583219e-16
 31 -1.68162996482031487e-17
 32  6.19653562263627056e-02
 33  1.44656592389951377e-01
 34 -2.12119627502362657e-01
 35 -2.67119372585933379e-01
 36 -7.63821735115448597e-02
 37  1.61623403048504436e-10
 38  1.49382424240665184e-10
 39  9.89944887413993502e-02
 40 -2.02187609359389514e-10
 41 -1.86880426016472790e-10
 42  7.07240774241827269e-02
 43  2.89589299094219188e-11
 44  2.67680329390951345e-11
 45  9.31922294796202512e-03
 46 -5.41304630805786949e-03
 47  4.94761939309807276e-13
 48  4.57688745598698609e-13
 49 -1.85030973794864051e-15
 50 -3.63516778684308029e-16
 51 -9.54410155412547222e-03
 52  2.35046565525764043e-10
 53  2.17248904012610200e-10
 54  2.92620715912287186e-15
 55  7.22595483620948442e-16
 56  1.56583857015600157e-03
 57 -5.08041810005697577e-11
 58 -4.69573501945358393e-11
 59 -2.60638271149829719e-15
 60 -1.81976692017100355e-16
 61  1.59553171220392867e-15
 62 -1.86340784391619508e-15
 63  6.19653898745978343e-02
 64  1.44656671016244881e-01
 65 -2.12119745364232892e-01
 66 -2.67119506560002551e-01
 67 -7.63822046779313868e-02
 68 -2.54073343583458168e-09
 69 -2.34834871709179773e-09
 70 -9.89945393640131455e-02
 71 -2.13281349887378996e-09
 72 -1.97131813289904834e-09
 73 -7.07241054094883415e-02
 74 -2.25436693305191411e-10
 75 -2.08367841323323564e-10
 76 -9.31922319492869966e-03
 77 -5.41304909620161402e-03
 78 -2.56432649185197452e-10
 79 -2.37015187159507583e-10
 80 -4.80211761749985412e-15
 81  4.34318175002559813e-16
 82 -9.54410485182986476e-03
 83 -6.86305005395955913e-10
 84 -6.34339654491983219e-10
 85 -4.16324478360699718e-15
 86 -1.16572724697855566e-15
 87 -1.56583962594202485e-03
 88 -1.55506661990785402e-10
 89 -1.43731851766497732e-10
 90  2.36553398607832323e-16
 91 -1.60646880898219560e-16
 92  1.93760992627088130e-15
 93 -1.86240945447668972e-15
 Sym= A
 Ene= -1.03459194663459542e+00
 Spin= Alpha
 Occup=  1.00000000000000000e+00
  1 -1.94155862468504316e-08
  2 -4.04957211552529017e-08
  3  6.80078065548840511e-08
  4  3.37486897086990436e-08
  5  2.42013061703444073e-09
  6  3.48576191680077231e-09
  7  3.22181571360077352e-09
  8  2.55385818565266154e-01
  9  1.79699612765039722e-09
 10  1.66092932543443543e-09
 11  1.31657755827526035e-01
 12  8.51348592845869544e-11
 13  7.86850736210507915e-11
 14  6.23721096799794740e-03
 15  7.58101737316118943e-09
 16 -7.36411490604893052e-10
 17 -6.80648794308186492e-10
 18 -1.15597615470805619e-15
 19 -3.81448748704401961e-17
 20  7.23055029124888377e-10
 21 -2.19382463070651722e-10
 22 -2.02771965582818850e-10
 23  5.02442829481949146e-16
 24  4.46945606648964330e-16
 25  1.81336475356023465e-02
 26  6.06262746497240604e-10
 27  5.60357755364228659e-10
 28 -3.85540597883385453e-15
 29 -2.10711037513434116e-16
 30 -3.34590318076296649e-17
 31  1.84578606090633741e-16
 32 -6.77176771784071679e-02
 33 -1.58162565594441029e-01
 34  2.33918229601342870e-01
 35  2.68980273120379754e-01
 36  6.45231619795657158e-02
 37  3.87289951348430748e-10
 38  3.57966652221323972e-10
 39 -1.03155457009696735e-01
 40 -3.39225829765317971e-12
 41 -3.13574286185560466e-12
 42 -5.72449430194624104e-02
 43 -6.83413820524992306e-12
 44 -6.31379205716841774e-12
 45 -6.23910701059456453e-04
 46  5.80980310176364319e-03
 47 -4.38031445394888618e-11
 48 -4.04864732772714132e-11
 49  2.07448987164125384e-15
 50  8.17780023021307926e-17
 51  6.73237946921234533e-03
 52  1.28855984463598250e-10
 53  1.19099296770176639e-10
 54 -2.07503337345116775e-15
 55 -1.02417737817145956e-15
 56 -2.13897254952026290e-03
 57 -3.00315249673799646e-11
 58 -2.77579685851064126e-11
 59  2.59735706760767616e-15
 60  8.63409689862887020e-17
 61 -2.46962953432354462e-15
 62  2.13604577555264877e-15
 63  6.77176476974035851e-02
 64  1.58162496832185834e-01
 65 -2.33918130741557345e-01
 66 -2.68980146360995709e-01
 67 -6.45231248060921803e-02
 68 -3.20323147767749675e-09
 69 -2.96068142855889350e-09
 70 -1.03155408187424233e-01
 71 -1.55927664810290571e-09
 72 -1.44121090790661509e-09
 73 -5.72449077249846949e-02
 74 -1.02013212178835910e-11
 75 -9.42870675406553279e-12
 76 -6.23905998442224308e-04
 77 -5.80980037779206364e-03
 78 -3.18499698081585553e-10
 79 -2.94382157116347858e-10
 80 -5.35255243231162764e-15
 81  6.47075620373039459e-16
 82 -6.73237462297064573e-03
 83 -1.89459357491084846e-10
 84 -1.75115550878680220e-10
 85 -5.93504925418416026e-15
 86 -1.19132435659214988e-15
 87 -2.13897175948625159e-03
 88 -1.12993756355874398e-10
 89 -1.04438099861430166e-10
 90  1.51241094720950531e-16
 91 -1.89659480883487906e-16
 92  2.06441642069343317e-15
 93 -2.45898941901287493e-15
 Sym= A
 Ene= -5.04228839243112792e-01
 Spin= Alpha
 Occup=  1.00000000000000000e+00
  1  6.69804229014114849e-02
  2  1.44701837084746765e-01
  3 -2.61159681549686051e-01
  4 -2.67841418819639299e-01
  5 -4.22918935207278537e-03
  6 -1.35333781993266585e-09
  7 -1.25087129400287836e-09
  8  6.63578877862721552e-08
  9 -1.45836324434159587e-09
 10 -1.34793829203347158e-09
 11  4.22266758712624278e-08
 12 -1.31013459968576972e-09
 13 -1.21093073557267466e-09
 14 -9.01403721187098557e-09
 15 -1.25118797532218391e-02
 16 -2.95789535692343727e-10
 17 -2.73392287354726538e-10
 18  1.05859997513069513e-14
 19 -8.44634588462684673e-16
 20  4.28200891497989167e-03
 21  1.01228924535367417e-10
 22  9.35660119088137465e-11
 23 -1.55214456369956988e-15
 24 -1.43082301179495857e-16
 25  3.90699266270826938e-09
 26  2.45459331462776695e-10
 27  2.26872548961043288e-10
 28  9.86327087770114974e-16
 29 -1.19462878003782509e-17
 30  2.06655305322886120e-15
 31 -1.46736890395207029e-15
 32 -4.37399293263532399e-02
 33 -1.03569814474470542e-01
 34  1.55135669641449564e-01
 35  2.44971601101325348e-01
 36  1.81694014788614439e-01
 37 -1.45594551217858051e-09
 38 -1.34570354467746676e-09
 39  2.45767899503010451e-01
 40 -1.39518849942444065e-09
 41 -1.28954751018295894e-09
 42  1.71670908603838768e-01
 43 -2.15021525483207474e-10
 44 -1.98744854552057757e-10
 45  8.50101304926993706e-02
 46 -6.72641870919961880e-03
 47  5.03240451764798005e-11
 48  4.65126712116961144e-11
 49  1.36141501807034491e-15
 50  3.78281839349303849e-17
 51 -1.05111881440938370e-02
 52  1.99544699294422552e-10
 53  1.84437910363965163e-10
 54  3.05813690383676050e-15
 55 -1.23750009066611462e-15
 56  1.53931581965334983e-03
 57 -6.98358755051102848e-11
 58 -6.45476547370220122e-11
 59  1.61306334259489071e-15
 60 -3.57056196776372885e-16
 61 -7.46977147827480106e-15
 62  8.94209707157542034e-15
 63 -4.37399455411744201e-02
 64 -1.03569852900170456e-01
 65  1.55135726388263173e-01
 66  2.44971709768644963e-01
 67  1.81694084375653042e-01
 68 -8.16493487380443549e-09
 69 -7.54667477880384446e-09
 70 -2.45768053268772685e-01
 71 -6.08147455995637339e-09
 72 -5.62097644843809882e-09
 73 -1.71671012548883312e-01
 74 -2.53563755147285401e-09
 75 -2.34363291379820290e-09
 76 -8.50101775297379125e-02
 77 -6.72642288076166252e-03
 78 -3.68359939144763178e-10
 79 -3.40467955883794925e-10
 80  3.66987091360789523e-15
 81 -1.05352153407680252e-15
 82 -1.05111936359410605e-02
 83 -6.96532802689749129e-10
 84 -6.43788860308834081e-10
 85  7.91345364893136737e-15
 86  6.72183463749111029e-16
 87 -1.53931712137378505e-03
 88 -1.72762239923816181e-10
 89 -1.59681886538984504e-10
 90 -3.48261211587652072e-15
 91  2.08881171018727741e-16
 92 -7.62328840498510193e-15
 93  9.29775486144214105e-15
 Sym= A
 Ene= -4.67420498643935312e-01
 Spin= Alpha
 Occup=  1.00000000000000000e+00
  1 -2.74028686404764664e-10
  2 -5.73639037956699134e-10
  3  1.20879229824367887e-09
  4 -1.58908234218011818e-11
  5  1.55459264300069577e-09
  6  2.11594098195597071e-03
  7  3.06808533358694346e-01
  8 -3.89956879297383444e-09
  9  1.63670159956961201e-03
 10  2.37319481772559432e-01
 11 -3.01631469814434535e-09
 12  4.32564878479826942e-04
 13  6.27213126843492036e-02
 14 -7.97126833939446902e-10
 15  3.10553618123028108e-10
 16 -1.55326910760331909e-11
 17 -2.25232811052201287e-09
 18  3.24732605614629934e-10
 19 -3.56252120546147673e-10
 20  3.10689775909068489e-11
 21 -2.21254770507177862e-11
 22 -3.20873555296830170e-09
 23  3.47070103213289282e-10
 24 -3.80719142561422514e-10
 25 -5.55097339073479252e-10
 26  1.22967790747390368e-04
 27  1.78301605990640981e-02
 28 -3.53000693458694632e-10
 29  3.87244859672679500e-10
 30 -3.85362290826841538e-09
 31 -2.54248483652155289e-08
 32 -3.12906190117517801e-10
 33 -7.51213612942147422e-10
 34  1.16559064453972071e-09
 35  2.30949575755588195e-09
 36  2.50813268189848957e-09
 37  1.75991915702251715e-03
 38  2.55185858207405414e-01
 39  2.73281988661366754e-09
 40  1.38170998972895033e-03
 41  2.00346048918632530e-01
 42  1.50480997983885530e-09
 43  6.41939112068490888e-04
 44  9.30802887042976729e-02
 45  6.43061216715544244e-10
 46 -6.94421952670825467e-11
 47 -5.51802475974685460e-05
 48 -8.00106003893979838e-03
 49 -6.60166011132163924e-12
 50  7.24587206074076100e-12
 51 -6.05303721221399171e-11
 52 -1.23598356395615105e-04
 53 -1.79215917541886913e-02
 54  4.44521882482085276e-11
 55 -4.87978549699569146e-11
 56  3.83197121670376977e-11
 57  2.38906956595279212e-05
 58  3.46411802576988706e-03
 59 -2.29608715069029221e-11
 60  2.52029243659645219e-11
 61 -2.43227617058687213e-09
 62 -1.60472964062265821e-08
 63 -3.12868836806321859e-10
 64 -7.51127342557829511e-10
 65  1.16547528625603734e-09
 66  2.30923244386022321e-09
 67  2.50802880341935093e-09
 68  1.75991947542787153e-03
 69  2.55185904376920403e-01
 70 -9.21911565953431139e-09
 71  1.38171024099596512e-03
 72  2.00346085351568892e-01
 73 -6.59722252118980724e-09
 74  6.41939240129484122e-04
 75  9.30803072737460963e-02
 76 -3.00896538185557032e-09
 77 -4.21699918542165935e-10
 78  5.51802527713084859e-05
 79  8.00106078921665118e-03
 80 -2.06970868724468143e-10
 81  2.27051205146568803e-10
 82 -8.49555059421611459e-10
 83  1.23598371864389777e-04
 84  1.79215939966529056e-02
 85 -4.04351319392407707e-10
 86  4.43544140161931138e-10
 87 -2.54006357787256916e-10
 88  2.38906988589400174e-05
 89  3.46411848964595526e-03
 90 -1.14203429163997306e-10
 91  1.25268432818559320e-10
 92 -2.43227717805520248e-09
 93 -1.60472953159832681e-08
 Sym= A
 Ene= -4.67420498643692284e-01
 Spin= Alpha
 Occup=  1.00000000000000000e+00
  1 -2.92408208637766981e-10
  2 -6.12113647220627227e-10
  3  1.28986695490402719e-09
  4 -1.69722073787754132e-11
  5  1.65882781630564735e-09
  6  3.06808533358720215e-01
  7 -2.11594098195143224e-03
  8 -4.16086589197113874e-09
  9  2.37319481777826219e-01
 10 -1.63670159953294928e-03
 11 -3.21847218700040444e-09
 12  6.27213126834557239e-02
 13 -4.32564878483831280e-04
 14 -8.50623465162903020e-10
 15  3.31385856791825948e-10
 16 -2.25222457014280673e-09
 17  1.55335421340746710e-11
 18 -3.56239867333074261e-10
 19 -3.24749793867355140e-10
 20  3.31369805823165425e-11
 21 -3.20822494961776587e-09
 22  2.21309444128057264e-11
 23 -3.80735859166407997e-10
 24 -3.47054589860858482e-10
 25 -5.92313752697413076e-10
 26  1.78301606005483483e-02
 27 -1.22967790736934186e-04
 28  3.87244772702195160e-10
 29  3.53002556477187543e-10
 30  2.54248384864811664e-08
 31 -3.85362254607356529e-09
 32 -3.33862216484218203e-10
 33 -8.01526056936986016e-10
 34  1.24366632482343103e-09
 35  2.46419161166237897e-09
 36  2.67624413859017248e-09
 37  2.55185858207408356e-01
 38 -1.75991915702297967e-03
 39  2.91582709691059142e-09
 40  2.00346048917250302e-01
 41 -1.38170998974338106e-03
 42  1.60554434829886870e-09
 43  9.30802887032591286e-02
 44 -6.41939112075989773e-04
 45  6.86090915415570988e-10
 46 -7.40925636475261334e-11
 47 -8.00106003907128868e-03
 48  5.51802475965277770e-05
 49  7.24237559209148567e-12
 50  6.60428967077918464e-12
 51 -6.45787459556627167e-11
 52 -1.79215917527127122e-02
 53  1.23598356406867254e-04
 54 -4.87716275145327386e-11
 55 -4.44856561775962198e-11
 56  4.08874017886251097e-11
 57  3.46411802540852942e-03
 58 -2.38906956625059061e-05
 59  2.51908357059991695e-11
 60  2.29758671032331872e-11
 61  1.60472968776484500e-08
 62 -2.43227655888522087e-09
 63 -3.33881150283768387e-10
 64 -8.01570521936807002e-10
 65  1.24373551229605314e-09
 66  2.46430019082066913e-09
 67  2.67637524843702233e-09
 68  2.55185904375980210e-01
 69 -1.75991947543686369e-03
 70 -9.83766764123425381e-09
 71  2.00346085350166764e-01
 72 -1.38171024100214573e-03
 73 -7.03984684868977618e-09
 74  9.30803072721382574e-02
 75 -6.41939240143005315e-04
 76 -3.21084616589631565e-09
 77 -4.49988549524827252e-10
 78  8.00106078925576572e-03
 79 -5.51802527707954889e-05
 80  2.27047769216915894e-10
 81  2.06973905166222082e-10
 82 -9.06541453689275785e-10
 83  1.79215939956411142e-02
 84 -1.23598371871676537e-04
 85  4.43570146305134281e-10
 86  4.04317796293852604e-10
 87 -2.71044660768939863e-10
 88  3.46411848933312998e-03
 89 -2.38906988617763241e-05
 90  1.25280183173821474e-10
 91  1.14189865870401279e-10
 92  1.60473028767276245e-08
 93 -2.43227693470158704e-09
 Sym= A
 Ene= -4.64199252722166333e-01
 Spin= Alpha
 Occup=  1.00000000000000000e+00
  1  1.73581748055010407e-08
  2  3.75408090554488948e-08
  3 -6.80786500599025783e-08
  4 -7.17583196418314921e-08
  5 -1.62877462551353169e-09
  6 -3.57481835084256551e-09
  7 -3.30438477441456912e-09
  8 -2.61916851490065661e-01
  9 -2.19533796626453326e-09
 10 -2.02930280574087341e-09
 11 -1.60847419754596349e-01
 12  6.84110984959936512e-10
 13  6.32259080462474698e-10
 14  5.01205692013582185e-02
 15 -2.38396595365602203e-09
 16  2.46001449910141018e-10
 17  2.27373308595662022e-10
 18  1.30807345620901586e-15
 19  9.04158690685146722e-17
 20  2.37478117534579159e-09
 21 -4.27252943465387733e-10
 22 -3.94900689585494650e-10
 23 -4.57034657689012752e-16
 24  8.95072867237595078e-17
 25 -1.47786431039860465e-02
 26 -4.94087688563690145e-10
 27 -4.56691445018620019e-10
 28  3.92765352034507536e-15
 29 -5.58821128063919260e-16
 30  5.94392670568187020e-17
 31 -9.17761823506014236e-17
 32 -3.29056879688408160e-02
 33 -7.78803737743698210e-02
 34  1.12192331169338425e-01
 35  2.18047013428507130e-01
 36  1.35115533610062538e-01
 37 -2.67822767199699797e-09
 38 -2.47563485427261281e-09
 39  2.96722100568741765e-01
 40 -1.79425880061556547e-09
 41 -1.65855473455598591e-09
 42  2.03026644213767038e-01
 43 -1.32077535703224561e-09
 44 -1.22084424833399414e-09
 45  1.00848913586632838e-01
 46 -8.16478379875115387e-03
 47  7.60059902685005163e-11
 48  7.02564682861813841e-11
 49  1.22025877084088259e-15
 50  2.04971573682149722e-16
 51 -1.13611120256010192e-02
 52  8.40098908255807002e-12
 53  7.77991640267008063e-12
 54  2.83424016521660942e-15
 55 -5.23976098825374192e-17
 56  2.62371670432690832e-03
 57 -2.50311265840122602e-11
 58 -2.31385681508965371e-11
 59  1.75612772173758252e-15
 60 -5.59442334980682619e-16
 61 -7.21932077047813549e-15
 62  9.19827497228875781e-15
 63  3.29056654326200584e-02
 64  7.78803203906495711e-02
 65 -1.12192251614270100e-01
 66 -2.18046888429739905e-01
 67 -1.35115436687647861e-01
 68  1.07782912000078723e-08
 69  9.96193368521923918e-09
 70  2.96721983363645303e-01
 71  7.33658692242441026e-09
 72  6.78088719185013030e-09
 73  2.03026561522350574e-01
 74  4.07380732942244504e-09
 75  3.76525195261594235e-09
 76  1.00848868176375631e-01
 77  8.16478044289487004e-03
 78  4.62054294298372507e-10
 79  4.27061038837493708e-10
 80 -2.87220866432930299e-15
 81  7.49996148753131839e-16
 82  1.13611063220525627e-02
 83  5.45579562377607003e-10
 84  5.04252374279920793e-10
 85 -6.18251110201700783e-15
 86 -1.98560530547849975e-15
 87  2.62371587104685269e-03
 88  2.00468871735507062e-10
 89  1.85287127112325637e-10
 90  4.56268007671769197e-15
 91 -3.43135495719705772e-16
 92  7.40576510230788883e-15
 93 -8.61973273593049185e-15
 Sym= A
 Ene= -3.31776708965955569e-01
 Spin= Alpha
 Occup=  1.00000000000000000e+00
  1  3.42361605513298676e-17
  2 -2.01405215498875613e-16
  3 -1.37792103910434934e-14
  4  1.05913777616724623e-13
  5  9.97614983579245677e-15
  6 -6.71581620493990382e-12
  7  2.81685655784034221e-08
  8 -1.22967825143287420e-09
  9 -5.77128308306069471e-12
 10  2.42102255980219949e-08
 11  1.72977220134087631e-09
 12 -2.54915373819441574e-12
 13  1.06984174203884238e-08
 14  3.16898381606014992e-09
 15 -7.79777217928004995e-10
 16 -8.51189751732157180e-06
 17  3.56960354643802782e-02
 18 -4.50439070671518964e-10
 19  4.87108606786626140e-10
 20 -1.07963987553075338e-09
 21 -1.17853854368591988e-05
 22  4.94239428576881690e-02
 23 -6.23667595367367574e-10
 24  6.74439351299287846e-10
 25  3.53870628264388704e-10
 26 -2.35509704657239704e-13
 27  9.88690431162010170e-10
 28  1.87642188176638895e-10
 29 -2.02908106761689653e-10
 30 -5.38470489265463766e-16
 31 -2.76449421840060553e-15
 32 -1.54970425984374399e-11
 33 -1.85719869865025323e-11
 34 -1.84397974183128700e-10
 35  5.38246952305450530e-10
 36 -2.62208037491175702e-09
 37 -8.38409127748862028e-05
 38  3.51600590787586431e-01
 39  3.23185811239196821e-09
 40 -6.82737533927257569e-05
 41  2.86317159876528449e-01
 42  2.77891676371643005e-09
 43 -4.50821304429632340e-05
 44  1.89059293048286059e-01
 45  1.84051737789896857e-09
 46 -9.18023058681165936e-11
 47  1.33208925789705937e-06
 48 -5.58633433935213242e-03
 49 -1.41003725117240414e-11
 50  1.52520395714288588e-11
 51 -1.82073593257942701e-10
 52  4.32961075960613569e-06
 53 -1.81569313897279178e-02
 54 -5.30657831196822031e-11