[Molden Format]
[Atoms] (AU)
N    1    7        -0.101484417824       0.042802091602       0.068436017810
H    2    1         1.386989136774      -0.428111002546       1.186385543571
H    3    1         0.546613402813       1.354670877530      -1.175145429881
H    4    1        -0.523542491817      -1.521267127815      -0.962114115933
[GTO]
  1 0
 s    6  1.00
    19730.8006470000         0.0002188798
     2957.8958745000         0.0016960709
      673.2213359500         0.0087954604
      190.6824949400         0.0353593826
       62.2954418980         0.1109578922
       22.6541611820         0.2498297255
 s    2  1.00
        8.9791477428         0.4062389615
        3.6863002370         0.2433821718
 s    1  1.00
        0.8466007680         1.0000000000
 s    1  1.00
        0.3364713377         1.0000000000
 s    1  1.00
        0.1364765367         1.0000000000
 p    4  1.00
       49.2003805100         0.0055552417
       11.3467905370         0.0380523797
        3.4273972411         0.1495367103
        1.1785525134         0.3494930523
 p    1  1.00
        0.4164220497         1.0000000000
 p    1  1.00
        0.1426082601         1.0000000000
 d    1  1.00
        1.6540000000         1.0000000000
 d    1  1.00
        0.4690000000         1.0000000000
 f    1  1.00
        1.0930000000         1.0000000000

  2 0
 s    3  1.00
       34.0613410000         0.0060251978
        5.1235746000         0.0450210940
        1.1646626000         0.2018972600
 s    1  1.00
        0.3272304100         1.0000000000
 s    1  1.00
        0.1030724100         1.0000000000
 p    1  1.00
        0.8000000000         1.0000000000

  3 0
 s    3  1.00
       34.0613410000         0.0060251978
        5.1235746000         0.0450210940
        1.1646626000         0.2018972600
 s    1  1.00
        0.3272304100         1.0000000000
 s    1  1.00
        0.1030724100         1.0000000000
 p    1  1.00
        0.8000000000         1.0000000000

  4 0
 s    3  1.00
       34.0613410000         0.0060251978
        5.1235746000         0.0450210940
        1.1646626000         0.2018972600
 s    1  1.00
        0.3272304100         1.0000000000
 s    1  1.00
        0.1030724100         1.0000000000
 p    1  1.00
        0.8000000000         1.0000000000

[5D]
[9G]

[MO]
 Sym= A
 Ene= -1.42932730514465636e+01
 Spin= Alpha
 Occup=  1.00000000000000000e+00
  1  4.48266487382003809e-01
  2  6.27133776371575968e-01
  3  3.40860406857677184e-02
  4 -2.11411819450328144e-02
  5  1.49133735128264867e-02
  6  1.39706339756080181e-03
  7 -5.89593120959405487e-04
  8 -9.42265792856721756e-04
  9 -8.15626643735144793e-04
 10  3.42554835323121722e-04
 11  5.49631559999655666e-04
 12  1.49357429576684776e-03
 13 -6.30342788180448740e-04
 14 -1.00731874285775913e-03
 15  1.19966756768396859e-05
 16  1.04834109329559802e-04
 17 -4.40647230748894504e-05
 18 -6.38795790429736067e-05
 19  6.56010702447803811e-05
 20  9.17670265825321188e-06
 21  8.09477568850977785e-05
 22 -3.33278217146620065e-05
 23 -4.93508676827082084e-05
 24  5.05105982487692043e-05
 25  2.66716712607045115e-05
 26  3.75776428421082087e-05
 27  9.40036542879289757e-06
 28  1.21957570336985252e-04
 29 -9.88021243712470864e-05
 30  1.96196165096999497e-05
 31 -7.55475139775366604e-06
 32  1.95884685585834506e-04
 33 -2.36623753354942815e-04
 34 -2.54526169634280985e-03
 35  4.04866350022244949e-04
 36 -1.28123524093989594e-04
 37  3.03091281966844637e-04
 38  1.96164804977416729e-04
 39 -2.35755411788985460e-04
 40 -2.54521098610537184e-03
 41  1.76471656263517770e-04
 42  3.55525045095318791e-04
 43 -3.37719143487881892e-04
 44  1.95430237187953784e-04
 45 -2.37890253636033740e-04
 46 -2.54540026990388414e-03
 47 -1.14130982800561534e-04
 48 -4.25764864413466504e-04
 49 -2.80812650387615151e-04
 Sym= A
 Ene= -8.53709376320895386e-01
 Spin= Alpha
 Occup=  1.00000000000000000e+00
  1 -9.50896704113116109e-02
  2 -2.14046169979473289e-01
  3  3.27016103569656658e-01
  4  3.76631729865462173e-01
  5  1.21495588920523770e-01
  6  5.93680502413160005e-02
  7 -2.50737229537888011e-02
  8 -4.00451381398793313e-02
  9  4.71183124974659598e-02
 10 -1.98861884712155206e-02
 11 -3.17784731897371234e-02
 12  1.06801711554822785e-02
 13 -4.50824984346244548e-03
 14 -7.20323771792341985e-03
 15  2.87663187377678058e-04
 16  2.51128212406801594e-03
 17 -1.05717187287847738e-03
 18 -1.53013010881580683e-03
 19  1.57133860388256269e-03
 20  2.97955751311169341e-04
 21  2.60058361316600675e-03
 22 -1.09994150531572276e-03
 23 -1.58347042083488757e-03
 24  1.62859491621690652e-03
 25  3.15730016280243715e-04
 26  9.17187424103059392e-04
 27  3.77503699369663155e-04
 28  4.26091343263802422e-03
 29 -3.58150907051417791e-03
 30  3.85235148123593083e-04
 31  2.87278283991181723e-04
 32  9.12504192659678998e-02
 33  8.19369835868350299e-02
 34  8.12478037826909472e-03
 35 -1.12205423011881387e-02
 36  3.33337588800941510e-03
 37 -1.13425540807136054e-02
 38  9.12370001502681022e-02
 39  8.19242166145068423e-02
 40  8.12525728335160291e-03
 41 -3.72983692760971717e-03
 42 -1.25516706580073040e-02
 43  9.70070417925479080e-03
 44  9.12699343670410612e-02
 45  8.19533845346270273e-02
 46  8.12427156363773259e-03
 47  5.80791168777024421e-03
 48  1.30804966386101618e-02
 49  7.80827549623988419e-03
 Sym= A
 Ene= -4.62564001346355613e-01
 Spin= Alpha
 Occup=  1.00000000000000000e+00
  1 -6.12108418257327946e-07
  2 -1.39546580885704729e-06
  3 -1.93974507464187613e-06
  4  2.46870531264993741e-05
  5  4.94747134586814714e-06
  6  2.05396566063218211e-01
  7  2.37199486299868673e-01
  8  1.56116479796041152e-01
  9  1.51245980494510157e-01
 10  1.74658182563272701e-01
 11  1.14950141878583517e-01
 12  7.67258081361662098e-02
 13  8.86039453114985803e-02
 14  5.83150326059079446e-02
 15 -3.96906126933159063e-04
 16  1.05862983289430231e-03
 17 -1.21050732930580753e-02
 18  8.27963791971711265e-03
 19 -1.72177333212713158e-03
 20 -8.12563838701936027e-03
 21  7.58084233019275223e-04
 22 -9.77052354171100909e-03
 23  1.34189735151744576e-02
 24  6.75889146090092631e-03
 25 -5.48423453616559602e-04
 26  1.01074331857513907e-03
 27 -2.89739147556030232e-04
 28  7.04994994853615632e-04
 29  8.30521872364558818e-04
 30 -1.42965924897195330e-03
 31 -4.32469452927365314e-04
 32  1.03678483383135039e-01
 33  1.38735568224895189e-01
 34  5.58207270715223372e-02
 35 -8.08491858714431924e-03
 36  1.46662981715244712e-02
 37 -6.50902381009388180e-03
 38  7.03625701063708836e-02
 39  9.41547319168714730e-02
 40  3.78863402452508519e-02
 41  3.56471113264182626e-03
 42 -5.56482385961955175e-04
 43  1.55782342105995775e-02
 44 -1.74031090899683383e-01
 45 -2.32866417554154825e-01
 46 -9.36840799469462748e-02
 47 -2.92664027294855438e-04
 48 -1.96689354637547970e-02
 49 -1.27288917878006780e-02
 Sym= A
 Ene= -4.62518633688198566e-01
 Spin= Alpha
 Occup=  1.00000000000000000e+00
  1  1.60843062067891854e-06
  2  3.69576160920964385e-06
  3 -4.14340945730352230e-06
  4 -1.86427726768445876e-05
  5 -5.44148441690045587e-06
  6  7.36388939884824040e-02
  7 -2.30568246357078760e-01
  8  2.53441329092257750e-01
  9  5.42265462418877880e-02
 10 -1.69792785558216974e-01
 11  1.86638898442849338e-01
 12  2.75124922113478623e-02
 13 -8.61420851835174722e-02
 14  9.46881071963510956e-02
 15 -3.38102557708179702e-03
 16  1.01521020937318709e-02
 17  5.38357618616026445e-03
 18  4.91750980763045343e-03
 19 -7.18470029839812958e-03
 20 -1.31236118758764585e-02
 21  8.83823814810674735e-03
 22  2.03274850885261068e-03
 23 -1.17653322540765262e-03
 24 -1.14934383535799968e-02
 25 -6.82168491789968481e-04
 26  1.45502717383101969e-03
 27 -8.31761088246581572e-04
 28 -5.48428148314429099e-04
 29 -2.83047150738910912e-04
 30  8.05969924764635332e-04
 31  7.21345544257170879e-04
 32  1.41088807371642561e-01
 33  1.88797259702998960e-01
 34  7.59786824567561664e-02
 35 -1.92761187939392252e-02
 36 -2.28587775119695183e-03
 37 -7.20682017754016233e-03
 38 -1.60323496936437049e-01
 39 -2.14543464685322066e-01
 40 -8.63446334872645105e-02
 41  1.36479570876527831e-02
 42  1.37218562841956576e-02
 43 -1.10102101148449594e-02
 44  1.92313175198775103e-02
 45  2.57336646054725088e-02
 46  1.03539610600836968e-02
 47  3.90510405577333946e-03
 48 -6.04193129155745912e-03
 49  1.22888099813638491e-02
 Sym= A
 Ene= -2.70371306332685357e-01
 Spin= Alpha
 Occup=  1.00000000000000000e+00
  1 -3.32746745488743043e-02
  2 -7.61404384934150774e-02
  3  1.21074052217214692e-01
  4  1.91656079667197055e-01
  5  1.52150818596862664e-01
  6 -3.16944449283112772e-01
  7  1.33765218047862622e-01
  8  2.13776838118579171e-01
  9 -2.56390859143551586e-01
 10  1.08205940795250338e-01
 11  1.72932146444603307e-01
 12 -2.70698419949096325e-01
 13  1.14243775641782022e-01
 14  1.82581287376875290e-01
 15  3.26533671052892940e-04
 16  2.84334485539010666e-03
 17 -1.20076598999358897e-03
 18 -1.73180494524567642e-03
 19  1.77943966150335758e-03
 20  2.54223053428593183e-03
 21  2.21321249422437687e-02
 22 -9.34023034299709572e-03
 23 -1.34861473757585532e-02
 24  1.38480327378419036e-02
 25  2.04304701319814623e-03
 26  1.04097406432297735e-03
 27 -3.07428093022433287e-04
 28 -1.68065427946913399e-03
 29  1.86206221067534310e-03
 30  8.93212042638031343e-04
 31 -2.06687925042017221e-03
 32 -4.41687575112740122e-02
 33 -4.77798565728011562e-02
 34 -3.05499904411864892e-02
 35 -9.17489650463127436e-03
 36  4.58212469268823655e-03
 37  1.57675175528507530e-02
 38 -4.41699869398997566e-02
 39 -4.77838366861950276e-02
 40 -3.05573434039319650e-02
 41 -1.29677615729015070e-02
 42  1.26296457189022330e-02
 43  5.10642994217451723e-03
 44 -4.41733649595263886e-02
 45 -4.77830696022240736e-02
 46 -3.05433172762502592e-02
 47 -1.78015218861976715e-02
 48 -3.53652612790723853e-04
 49  6.06818438370296948e-03
 Sym= A
 Ene=  2.27851603174263131e-02
 Spin= Alpha
 Occup=  0.00000000000000000e+00
  1 -4.10235542361341091e-02
  2 -9.92712663128162282e-02
  3  2.51800529593505351e-01
  4 -1.49820583822666109e-01
  5  2.06324426417289608e+00
  6  8.89646097854693702e-02
  7 -3.74885363086266410e-02
  8 -5.99854173844508870e-02
  9  4.00438675577634295e-02
 10 -1.68435536304564655e-02
 11 -2.69921537762246658e-02
 12  3.13363511393010996e-01
 13 -1.32120293504518593e-01
 14 -2.11305439504029524e-01
 15 -3.24426184975343311e-04
 16 -2.82652993856146069e-03
 17  1.19310442457890844e-03
 18  1.72218916394588795e-03
 19 -1.76890457824659770e-03
 20 -1.05056664022095347e-03
 21 -9.15893473489933808e-03
 22  3.85993400323001411e-03
 23  5.58249377687251597e-03
 24 -5.72937568048378833e-03
 25 -1.05055235965767317e-03
 26 -1.18557764391411815e-03
 27 -2.07418892724484382e-04
 28 -3.02223585714399539e-03
 29  2.36941997029696538e-03
 30 -6.72058972853920153e-04
 31  5.41145661102223458e-04
 32 -1.84173065751827431e-02
 33 -2.34591461913092256e-02
 34 -9.94330731449021510e-01
 35 -2.72725265810196682e-02
 36  8.41107635054248390e-03
 37 -2.34436654820564250e-02
 38 -1.84290051169081065e-02
 39 -2.34844136047846590e-02
 40 -9.94380519497118476e-01
 41 -1.07022253532651421e-02
 42 -2.67392845821060252e-02
 43  2.31192439746727256e-02
 44 -1.84028211498979098e-02
 45 -2.34238390295531430e-02
 46 -9.94245084021609604e-01
 47  1.04010580218860550e-02
 48  2.99680255617744140e-02
 49  1.89208511907980187e-02
 Sym= A
 Ene=  1.05754209753737283e-01
 Spin= Alpha
 Occup=  0.00000000000000000e+00
  1  1.76391716903459503e-06
  2  4.51914684700550134e-06
  3 -2.22384842075321999e-05
  4  7.92672569051599586e-05
  5 -2.82873014132840948e-04
  6 -3.56867234767119512e-02
  7  1.86641766975119888e-01
  8 -1.69691887310379513e-01
  9 -9.00802986000382409e-03
 10  4.71484119516325309e-02
 11 -4.28877660490316129e-02
 12 -1.30357424020307422e-01
 13  6.81727193078652927e-01
 14 -6.19784163227577678e-01
 15  1.24932359460748119e-03
 16  3.31937476580711861e-03
 17  2.95524529050418235e-03
 18  2.88075151830554472e-03
 19 -7.35736408429191364e-04
 20  2.49106290433395890e-03
 21  4.08801284423858241e-02
 22  3.25554582945409426e-02
 23  2.68394574797528492e-02
 24 -1.76928816610602904e-02
 25 -3.59144068275277662e-03
 26 -1.54701737856082692e-03
 27 -4.32524022764180227e-03
 28  2.34790412488111895e-03
 29  1.93504556540016748e-03
 30  4.37001676796257375e-03
 31 -1.96092765970073924e-03
 32  1.98991149728892057e-02
 33 -8.65126024678233158e-02
 34  1.58694502751253252e+00
 35  4.29524198854116038e-02
 36 -7.33234351857066629e-03
 37  2.57983426178495928e-02
 38 -2.60469578249823835e-02
 39  1.13136894947609118e-01
 40 -2.07608315590924652e+00
 41 -2.71582476841443383e-02
 42 -4.27107782228285174e-02
 43  4.20165687273494209e-02
 44  6.12813243752181706e-03
 45 -2.67111114682593298e-02
 46  4.89478719467557499e-01
 47 -4.80682932596605220e-03
 48 -7.40673555057738860e-03
 49 -1.55949737625044101e-02
 Sym= A
 Ene=  1.05766923355826575e-01
 Spin= Alpha
 Occup=  0.00000000000000000e+00
  1  3.41991135121690254e-06
  2  8.50584998755072738e-06
  3 -3.37926737219941591e-05
  4  1.01118133036586023e-04
  5 -4.13757593565553807e-04
  6  1.54532130878463680e-01
  7  1.51606947832566036e-01
  8  1.34256729099114652e-01
  9  3.89989381230665538e-02
 10  3.82308900423407594e-02
 11  3.38603268513682151e-02
 12  5.64485628990099797e-01
 13  5.53847873512659072e-01
 14  4.90459206373925649e-01
 15 -2.01799048862768031e-03
 16 -7.88908291909141339e-04
 17  3.91458053942635512e-03
 18 -1.51982006285732618e-03
 19  2.79186636245953943e-03
 20 -1.23521746750959067e-02
 21 -9.48485121936166672e-03
 22  4.75940206892091697e-02
 23 -2.64799604490969752e-02
 24  2.37514034719608427e-02
 25  4.69458236324486831e-03
 26 -1.82211507900017578e-03
 27 -3.08224330313311033e-03
 28  1.52432843444450547e-03
 29  1.91139497805303837e-03
 30  7.33754655142933592e-04
 31  4.98463679154963289e-03
 32 -1.85603964989265492e-02
 33  8.08075269791160150e-02
 34 -1.48125061988380802e+00
 35 -3.57028900154613554e-02
 36  1.86449222404455606e-02
 37 -2.49572583930445270e-02
 38 -7.93921823540100387e-03
 39  3.45612269944009995e-02
 40 -6.33543323646326262e-01
 41 -2.29812596956353735e-03
 42 -9.60913780475873905e-03
 43  1.95601507927130186e-02
 44  2.64779795615650571e-02
 45 -1.15470633113190835e-01
 46  2.11528729967243345e+00
 47 -9.58636422530737865e-03
 48 -5.57387501499635452e-02
 49 -3.59570430771782995e-02
 Sym= A
 Ene=  2.95781799901419840e-01
 Spin= Alpha
 Occup=  0.00000000000000000e+00
  1  1.47975978530361486e-06
  2  2.55056206955928456e-06
  3 -6.20506982605031346e-06
  4  4.43628372844883916e-05
  5  2.44999715096060142e-04
  6  3.31105253252309169e-03
  7 -9.44605456947925082e-03
  8  1.08396528913847472e-02
  9  6.43168289812102723e-02
 10 -1.83030996716763206e-01
 11  2.09870590737583101e-01
 12  3.61866003681248993e-01
 13 -1.02978275913293560e+00
 14  1.18072820543065848e+00
 15  5.00244360085192429e-03
 16 -2.51686668610207921e-02
 17 -1.34070525149365283e-02
 18 -1.44091307136824873e-02
 19  1.62346052834983212e-02
 20 -4.75911579163892581e-02
 21  1.52170378007664642e-01
 22  7.66419219733241036e-02
 23  7.82531456058230684e-02
 24 -1.06553149139738540e-01
 25 -1.45016936799574874e-02
 26  3.46089327585116574e-03
 27 -1.41485178566269597e-02
 28  3.16951273117583362e-03
 29  3.17519015633672659e-03
 30  1.48345812342128621e-02
 31 -3.78934817401178469e-03
 32 -9.91927517724904978e-02
 33 -1.25852286209807018e+00
 34 -9.90086889319022551e-04
 35  7.27373850032501656e-02
 36 -3.51524801289824704e-02
 37  7.26052999973831187e-02
 38  1.09399922351707632e-01
 39  1.38796561146717634e+00
 40  8.74133634018943928e-04
 41 -2.51728185305206548e-02
 42 -8.55427389823449763e-02
 43  7.93118616422529288e-02
 44 -1.02033262482330439e-02
 45 -1.29501267640533019e-01
 46 -1.38762685458812145e-04
 47  2.47470885632172528e-03
 48 -2.17111264804136506e-02
 49  1.13659175171027960e-02
 Sym= A
 Ene=  2.95804721253977554e-01
 Spin= Alpha
 Occup=  0.00000000000000000e+00
  1  1.46646623357152497e-06
  2  1.63379299768921148e-06
  3 -9.20992289725174164e-06
  4  1.02918425847329940e-04
  5  5.34078925567274955e-04
  6 -8.58034149612355371e-03
  7 -1.02207805989138027e-02
  8 -6.28259435146531070e-03
  9 -1.66024173899085664e-01
 10 -1.98304654450858292e-01
 11 -1.22085998256533115e-01
 12 -9.33690532765619197e-01
 13 -1.11542345749346783e+00
 14 -6.86728632518085913e-01
 15  1.68032995807300585e-03
 16  2.03000420266078981e-03
 17 -3.05365571198572480e-02
 18  1.80884644629395984e-02
 19 -6.53310384589223317e-03
 20  2.40904055245938281e-03
 21 -1.19940797651396890e-02
 22  1.83298072472192236e-01
 23 -1.20039660619815608e-01
 24  2.55039639519916081e-02
 25  1.35035362567297763e-02
 26 -9.91387491548085219e-03
 27 -8.54999253727771989e-03
 28  1.59405508468849042e-03
 29  1.90976663277537444e-03
 30  1.03167518500513599e-02
 31  1.45211639102179307e-02
 32  6.90508401848804881e-02
 33  8.76186167499818480e-01
 34  9.32727555949968844e-04
 35 -5.99858207848300365e-02
 36 -6.53910025524864834e-04
 37 -4.86960787571345324e-02
 38  5.13692106815939742e-02
 39  6.51847040893816621e-01
 40  5.95633882684209830e-04
 41 -2.69507580762022754e-02
 42 -4.88420780518870057e-02
 43  2.02278211053115997e-02
 44 -1.20434394405620218e-01
 45 -1.52830515612905304e+00
 46 -1.96446141580306150e-03
 47 -4.21831327527324787e-02
 48 -1.04753398842067080e-01
 49 -6.64953257273771942e-02
 Sym= A
 Ene=  3.48813875209127433e-01
 Spin= Alpha
 Occup=  0.00000000000000000e+00
  1 -2.58230793293330735e-02
  2 -5.29861294452721385e-02
  3 -4.71680201850320779e-02
  4  7.81372449962327353e-01
  5  1.16036223244434609e-02
  6 -2.17759368298387296e-01
  7  9.19087421908029445e-02
  8  1.46876815366476537e-01
  9 -4.74479659679972798e-01
 10  2.00247252043629920e-01
 11  3.20037883280961666e-01
 12  1.07739628610799620e+00
 13 -4.54609288724121763e-01
 14 -7.26604486130710492e-01
 15  3.93841477102166557e-04
 16  3.42572905496731387e-03
 17 -1.44371554152957849e-03
 18 -2.08839828948695566e-03
 19  2.14304471101368649e-03
 20  8.97133303040197365e-04
 21  7.86937355431789089e-03
 22 -3.31713696707152924e-03
 23 -4.78410278210992818e-03
 24  4.92864122482783527e-03
 25  2.62213132751112172e-03
 26  3.05162808485747719e-03
 27  5.69605268948061676e-04
 28  8.09214066219620005e-03
 29 -6.38258482938303118e-03
 30  1.70633310406665675e-03
 31 -1.27867452119213593e-03
 32 -1.23974524011210702e-02
 33 -3.96901672986449683e-01
 34  1.15153234480287427e-04
 35  2.12692677050961045e-02
 36 -6.40207193268890317e-03
 37  2.04036514383547606e-02
 38 -1.23979851967399041e-02
 39 -3.96902540829359052e-01
 40  1.72421664310191893e-04
 41  7.50469082700234470e-03
 42  2.27899777714125999e-02
 43 -1.82688200366133355e-02
 44 -1.23905520157172391e-02
 45 -3.96791297702548229e-01
 46  8.41651947221171788e-05
 47 -1.00157584184822901e-02
 48 -2.43009984932199830e-02
 49 -1.47818936957585054e-02
 Sym= A
 Ene=  4.50998926828038660e-01
 Spin= Alpha
 Occup=  0.00000000000000000e+00
  1  6.17049383434445098e-02
  2  1.28795911814022279e-01
  3  1.47492807749653426e-01
  4 -2.59529643999218385e+00
  5  3.34485400604276428e+00
  6 -1.41942762910629294e-01
  7  5.97488695847290599e-02
  8  9.56915646906523476e-02
  9 -4.60090260838947274e-01
 10  1.93910348365463309e-01
 11  3.10234932649033734e-01
 12  4.55434757318259054e-01
 13 -1.91269208004787528e-01
 14 -3.06956096079736007e-01
 15  5.11590344900067951e-04
 16  4.45729002896765123e-03
 17 -1.88101487463611318e-03
 18 -2.71670315422313600e-03
 19  2.78736673724887642e-03
 20 -1.56081717559186059e-04
 21 -1.47578433486822750e-03
 22  5.45543855015717411e-04
 23  9.01906906359941155e-04
 24 -9.09035783106566667e-04
 25 -5.20562954426132939e-03
 26 -7.56993525089934890e-03
 27 -1.97746435902845102e-03
 28 -2.51276258342046921e-02
 29  2.04243402304766508e-02
 30 -3.88608072198413533e-03
 31  1.31644582681408949e-03
 32  9.16590107761420525e-02
 33  8.53143872267731473e-01
 34 -1.16249056675250584e+00
 35 -5.47696786143342176e-02
 36  1.85964777797263149e-02
 37 -2.40103958569516211e-02
 38  9.16721674016218874e-02
 39  8.53096027950647318e-01
 40 -1.16304596310673758e+00
 41 -3.06165938097110908e-02
 42 -3.25887429843021090e-02
 43  4.38024208835494783e-02
 44  9.16400698678433573e-02
 45  8.53153739071753403e-01
 46 -1.16176812369564164e+00
 47  1.15890625357266056e-04
 48  5.00371354688310399e-02
 49  3.77352695701254973e-02
 Sym= A
 Ene=  5.00327566196016815e-01
 Spin= Alpha
 Occup=  0.00000000000000000e+00
  1 -1.94182857734623293e-02
  2 -3.22526543011260464e-02
  3 -1.04357845034758590e-01
  4  1.56853718993335600e+00
  5 -6.03830348681414097e+00
  6 -1.88543661220394385e-02
  7  7.82483798058891504e-03
  8  1.27062576972577640e-02
  9 -1.61199955982987309e-01
 10  6.77648948987250171e-02
 11  1.08709629552890708e-01
 12 -9.26772995811744549e-01
 13  3.91753433576691401e-01
 14  6.24989154486803811e-01
 15  1.28513687107534042e-03
 16  1.12142031596795620e-02
 17 -4.73225866570176328e-03
 18 -6.83118947242406134e-03
 19  7.01757236258663923e-03
 20  4.03691808802847385e-03
 21  3.50800583963077062e-02
 22 -1.48436160797612137e-02
 23 -2.13799490792467642e-02
 24  2.19591766188310077e-02
 25 -4.48952600038128504e-03
 26 -5.26678284940689662e-03
 27 -9.98984830740302790e-04
 28 -1.41141214317796748e-02
 29  1.11486103425364903e-02
 30 -2.93534401044826584e-03
 31  2.15349112981976214e-03
 32  2.81175556581135626e-02
 33  1.20783154985856767e+00
 34  9.34807307853006697e-01
 35 -4.83551979828837006e-02
 36  1.76092940849160162e-02
 37 -5.21044395885404774e-03
 38  2.81460376156929676e-02
 39  1.20795663122237551e+00
 40  9.33861617835391900e-01
 41 -3.33651379921039645e-02
 42 -1.41627661365444808e-02
 43  3.68846284665327942e-02
 44  2.80922303603468732e-02
 45  1.20761335688804761e+00
 46  9.35599452668693377e-01
 47 -1.43085616582044710e-02
 48  3.70996233024422778e-02
 49  3.31037231732985784e-02
 Sym= A
 Ene=  5.18144972150212157e-01
 Spin= Alpha
 Occup=  0.00000000000000000e+00
  1 -9.18563245233967479e-06
  2 -2.13384093184843748e-05
  3 -2.74095762502873637e-05
  4  3.42550630616145896e-04
  5  5.95308538577035413e-04
  6  6.36890291566514222e-02
  7 -2.56670029696570157e-01
  8  2.54953933481214146e-01
  9  1.82740990810893594e-01
 10 -7.36207254413364098e-01
 11  7.31210580767442719e-01
 12 -3.41059180380266003e-01
 13  1.37558684749755211e+00
 14 -1.36671189306868723e+00
 15 -4.95686064589802734e-03
 16 -2.85180836503063544e-04
 17 -1.58167090377492434e-03
 18 -3.16978910065136236e-03
 19 -2.79748143762842665e-03
 20 -2.47884118818368377e-03
 21  4.69296487533891853e-03
 22  2.60230353253906432e-03
 23  1.49894872285036328e-03
 24 -3.84193890970426725e-03
 25 -4.61223127089687660e-03
 26  2.42020670693727635e-03
 27 -5.26987561728900576e-03
 28  2.56291228439357291e-04
 29  5.52132472425810594e-04
 30  5.61311616401316462e-03
 31  1.72007356347132203e-04
 32 -7.82793279090642502e-02
 33 -5.99167470718784290e-01
 34  1.76841880403991092e+00
 35  1.07420243342116056e-02
 36 -1.52010965972734502e-02
 37  1.66330372296220538e-02
 38  9.57073156636970568e-02
 39  7.31792361189711804e-01
 40 -2.16318358792384746e+00
 41 -1.66616722531855730e-03
 42 -1.89610359490822548e-02
 43  2.00642486639412837e-02
 44 -1.74978096018502151e-02
 45 -1.34199881192689940e-01
 46  3.94931746503022374e-01
 47  2.99907995331115526e-03
 48 -1.43187620059019721e-02
 49  1.14065376494643048e-02
 Sym= A
 Ene=  5.18185229472171494e-01
 Spin= Alpha
 Occup=  0.00000000000000000e+00
  1 -1.62797997587273198e-05
  2 -3.62247608611732439e-05
  3 -5.56429726368167229e-05
  4  7.11240403357547477e-04
  5  2.05095528851604057e-04
  6 -2.19630981887649901e-01
  7 -2.33151517247425805e-01
  8 -1.79853367565980360e-01
  9 -6.29969096792387773e-01
 10 -6.68887253162787965e-01
 11 -5.16016286702379312e-01
 12  1.17746662037287608e+00
 13  1.24945358492480851e+00
 14  9.63709430376518905e-01
 15  4.36547542363943577e-03
 16  1.30010018732218857e-04
 17 -6.44927390603176540e-04
 18 -2.81414860116603908e-03
 19 -4.19498466288645028e-03
 20  1.07307460906397637e-03
 21 -7.81655563789138879e-04
 22  5.48409756334299059e-03
 23 -4.59198476420546401e-03
 24  2.80067135187760997e-04
 25  4.97869272674305793e-03
 26 -4.26531711543945598e-03
 27 -1.69792321068434242e-03
 28 -4.07624255648122557e-04
 29 -5.18485135052654234e-04
 30  4.25905297839295274e-03
 31  4.75184161673376012e-03
 32  6.53327234995422501e-02
 33  4.99565892213555962e-01
 34 -1.47688350397166768e+00
 35 -1.71479852579802354e-02
 36 -9.42310245758660146e-03
 37 -1.22468734702043808e-02
 38  3.50617617841405133e-02
 39  2.67906108424305456e-01
 40 -7.92840102544752789e-01
 41 -1.25993567408397671e-02
 42 -1.38104220751698679e-02
 43 -6.15900954222453438e-03
 44 -1.00490715688474411e-01
 45 -7.69445037434683510e-01
 46  2.27029099725872907e+00
 47 -1.17079421037192908e-02
 48 -2.08693835473739431e-02
 49 -1.56394494534288463e-02
 Sym= A
 Ene=  9.02658609223917829e-01
 Spin= Alpha
 Occup=  0.00000000000000000e+00
  1 -3.16888322245530210e-07
  2 -6.67969207235044444e-07
  3 -6.82254804007540297e-06
  4  4.43394946762408574e-05
  5  8.44881439555424140e-05
  6 -2.52359828352339867e-02
  7 -3.24732915811097519e-02
  8 -1.70800607128158075e-02
  9 -3.42289714011231386e-02
 10 -4.40940281092210076e-02
 11 -2.32107902802548144e-02
 12 -1.00769239696817475e-01
 13 -1.29691958247024203e-01
 14 -6.82411604640732611e-02
 15  2.07190899918269179e-03
 16  2.39318743805635134e-05
 17  1.18455111537083230e-03
 18 -2.90807137182766753e-03
 19 -2.45017908403596506e-03
 20 -4.12849584130691727e-01
 21 -1.02444090038155879e-02
 22  8.31542637900494069e-02
 23  3.82421208029260329e-01
 24  5.20373758074280879e-01
 25  4.63019917446418159e-03
 26 -3.91498768109224248e-03
 27 -3.00810942893758480e-03
 28  6.45323115355922840e-05
 29  9.80152342960924854e-05
 30  4.84487372147948334e-03
 31  5.18178562686851408e-03
 32 -7.30148218500652289e-03
 33  9.93890730931084598e-02
 34  1.07113801722851509e-02
 35  8.97333759909294537e-02
 36  1.11572456432803113e-01
 37 -8.39125548105351809e-02
 38 -6.65440311441084769e-03
 39  9.05819516701582422e-02
 40  9.75393792818588998e-03
 41  1.44419314726786652e-01
 42 -2.77469361384868884e-03
 43  8.17016107800278141e-02
 44  1.39416861381678452e-02
 45 -1.90114517155149571e-01
 46 -2.04836421136661978e-02
 47 -1.56739369405303974e-01
 48 -9.27484561298132226e-03
 49  5.45424872155505502e-02
 Sym= A
 Ene=  9.02680691090697818e-01
 Spin= Alpha
 Occup=  0.00000000000000000e+00
  1 -1.71857953647179611e-08
  2 -5.37926743235288723e-08
  3 -3.62965208516489052e-06
  4  2.65749482024718791e-05
  5 -3.13637922203283477e-06
  6  1.14994621584150799e-02
  7 -2.66910959828361820e-02
  8  3.37500101611984751e-02
  9  1.56132842264334118e-02
 10 -3.62156016299489750e-02
 11  4.57859369101150243e-02
 12  4.58996305008741931e-02
 13 -1.06517268006027579e-01
 14  1.34715323814889931e-01
 15 -3.62038868812466358e-03
 16  1.20013795177744526e-03
 17 -2.56135201102487527e-04
 18 -8.08304066586962105e-04
 19 -2.21374407052950251e-03
 20  6.38994562169623359e-01
 21  2.06729574689840899e-02
 22  1.62941838553026352e-01
 23  3.05350586890185904e-01
 24  2.56926492405056051e-01
 25 -5.68276567604765904e-03
 26  2.46411904386965039e-03
 27 -5.22441278880980253e-03
 28  6.89303218528557497e-04
 29  8.81647614839676402e-04
 30  5.29980901235959246e-03
 31 -1.07436975804344132e-03
 32  1.18880876178818068e-02
 33 -1.62025339706821481e-01
 34 -1.74252708832738044e-02
 35 -3.59555252271682793e-02
 36  1.14609829259534307e-01
 37  1.14776570567320532e-01
 38 -1.22592683737676525e-02
 39  1.67068844389785198e-01
 40  1.79687869229683307e-02
 41  5.02271794331979257e-02
 42 -1.28708430263384521e-01
 43 -9.23407812105699055e-02
 44  3.72481952090902727e-04
 45 -5.07204932764364781e-03
 46 -5.37853407536472263e-04
 47 -4.94955491163361627e-02
 48  9.58689165428971424e-02
 49 -1.25863867589695227e-01
 Sym= A
 Ene=  1.13544202968900576e+00
 Spin= Alpha
 Occup=  0.00000000000000000e+00
  1  2.88008062024541420e-03
  2  1.07841860407142994e-02
  3 -1.85428515707500574e-01
  4  2.51357684187526798e-01
  5  2.80056856043622426e+00
  6  8.96522872782842817e-02
  7 -3.78430081955666922e-02
  8 -6.04724976393818531e-02
  9  2.02960007648009838e-01
 10 -8.59047677014116162e-02
 11 -1.36985441093236765e-01
 12  6.82663965109219451e-01
 13 -2.88128924411124143e-01
 14 -4.60429913474440566e-01
 15 -1.02707959563313458e-03
 16 -8.94355639502672842e-03
 17  3.77833277687986526e-03
 18  5.44826088942531889e-03
 19 -5.59762127812543902e-03
 20  8.71096548839409290e-02
 21  7.59375399273406804e-01
 22 -3.20312134265409054e-01
 23 -4.62646289862365612e-01
 24  4.75253884152170958e-01
 25 -2.81020499684582568e-03
 26  3.67124131883547538e-03
 27  3.28719622062295267e-03
 28  3.28439857508421307e-02
 29 -2.86916789164782873e-02
 30  4.44561193013142905e-04
 31  6.94923785599729088e-03
 32  5.21610584713851164e-03
 33 -1.17432803882230608e+00
 34 -3.00871202458238396e-01
 35  4.00846898823363235e-03
 36  8.89035933946261646e-03
 37  1.39658626673783176e-01
 38  5.22074678102710764e-03
 39 -1.17416485619951638e+00
 40 -3.00829033534646961e-01
 41 -5.23883094810209879e-02
 42  1.28457546426017422e-01
 43 -1.87255381076780608e-02
 44  5.22398034563802214e-03
 45 -1.17477700928753914e+00
 46 -3.00857386952517181e-01
 47 -1.24204527176997051e-01
 48 -6.45553812509901126e-02
 49 -4.53594014399612364e-03
 Sym= A
 Ene=  1.24359190341714632e+00
 Spin= Alpha
 Occup=  0.00000000000000000e+00
  1 -2.61349668710818686e-06
  2 -4.80440534247812237e-06
  3  1.32307594490306719e-04
  4 -8.56791377702164876e-04
  5 -1.23097475273243223e-05
  6 -1.69944211224032603e-02
  7 -1.64704160779345424e-02
  8 -1.49261711132938849e-02
  9  7.64706476337030039e-01
 10  7.40334191239531703e-01
 11  6.70960612690226110e-01
 12  6.01924679395720807e-01
 13  5.82608109527260720e-01
 14  5.27953536678541280e-01
 15  5.38473703719746029e-04
 16 -2.49093183274531817e-04
 17  1.19737074275701183e-03