[Molden Format]
[Atoms] (AU)
C    1    6         0.000000021757       0.000000020110       0.000000000117
O    2    8         0.000000021757       0.000000020110       2.192037283393
O    3    8        -0.000000038081      -0.000000035197      -2.192037283480
[GTO]
  1 0
 s    6  1.00
    13575.3496820000         0.0002224581
     2035.2333680000         0.0017232738
      463.2256235900         0.0089255715
      131.2001959800         0.0357279845
       42.8530158910         0.1107625993
       15.5841857660         0.2429562763
 s    2  1.00
        6.2067138508         0.4144026345
        2.5764896527         0.2374496866
 s    1  1.00
        0.5769633942         1.0000000000
 s    1  1.00
        0.2297283136         1.0000000000
 s    1  1.00
        0.0951644400         1.0000000000
 p    4  1.00
       34.6972322440         0.0053333658
        7.9582622826         0.0358641091
        2.3780826883         0.1421587333
        0.8143320818         0.3427047185
 p    1  1.00
        0.2888754725         1.0000000000
 p    1  1.00
        0.1005682367         1.0000000000
 d    1  1.00
        1.0970000000         1.0000000000
 d    1  1.00
        0.3180000000         1.0000000000
 f    1  1.00
        0.7610000000         1.0000000000

  2 0
 s    6  1.00
    27032.3826310000         0.0002172630
     4052.3871392000         0.0016838662
      922.3272271000         0.0087395616
      261.2407098900         0.0352399688
       85.3546413510         0.1115351912
       31.0350352450         0.2558895396
 s    2  1.00
       12.2608607280         0.3976873090
        4.9987076005         0.2462784943
 s    1  1.00
        1.1703108158         1.0000000000
 s    1  1.00
        0.4647474099         1.0000000000
 s    1  1.00
        0.1850453636         1.0000000000
 p    4  1.00
       63.2749548010         0.0060685103
       14.6270493790         0.0419125758
        4.4501223456         0.1615384109
        1.5275799647         0.3570695131
 p    1  1.00
        0.5293511794         1.0000000000
 p    1  1.00
        0.1747842127         1.0000000000
 d    1  1.00
        2.3140000000         1.0000000000
 d    1  1.00
        0.6450000000         1.0000000000
 f    1  1.00
        1.4280000000         1.0000000000

  3 0
 s    6  1.00
    27032.3826310000         0.0002172630
     4052.3871392000         0.0016838662
      922.3272271000         0.0087395616
      261.2407098900         0.0352399688
       85.3546413510         0.1115351912
       31.0350352450         0.2558895396
 s    2  1.00
       12.2608607280         0.3976873090
        4.9987076005         0.2462784943
 s    1  1.00
        1.1703108158         1.0000000000
 s    1  1.00
        0.4647474099         1.0000000000
 s    1  1.00
        0.1850453636         1.0000000000
 p    4  1.00
       63.2749548010         0.0060685103
       14.6270493790         0.0419125758
        4.4501223456         0.1615384109
        1.5275799647         0.3570695131
 p    1  1.00
        0.5293511794         1.0000000000
 p    1  1.00
        0.1747842127         1.0000000000
 d    1  1.00
        2.3140000000         1.0000000000
 d    1  1.00
        0.6450000000         1.0000000000
 f    1  1.00
        1.4280000000         1.0000000000

[5D]
[9G]

[MO]
 Sym= A
 Ene= -2.06496190235584862e+01
 Spin= Alpha
 Occup=  1.00000000000000000e+00
  1  3.71313289712537179e-13
  2 -1.01036321619720390e-10
  3 -1.04516379715544262e-09
  4  1.06567214229413278e-08
  5 -1.55221000929713673e-10
  6  1.11162634605428201e-11
  7  1.02736451645172827e-11
  8  8.14427480885773639e-04
  9  1.22214152488754063e-11
 10  1.12967827289917190e-11
 11  8.95509420833635146e-04
 12 -2.08492292665929785e-11
 13 -1.92720873873639032e-11
 14 -1.52758653439971940e-03
 15  3.34327149755483181e-10
 16 -7.01453447403614128e-12
 17 -6.48356063899100906e-12
 18 -3.36757265006754102e-16
 19 -8.29338949103061082e-16
 20  4.41214864336003127e-09
 21 -6.36463484355391365e-11
 22 -5.88273193188923454e-11
 23  1.37379364596108188e-16
 24  8.05326639251211085e-16
 25 -8.45200917762491165e-04
 26 -2.82584324028637746e-11
 27 -2.61182946156631338e-11
 28  2.11535654063513292e-16
 29 -1.20774626362255763e-16
 30  2.07684330470251092e-16
 31  1.36162194529713991e-16
 32  3.08064585047261363e-01
 33  4.54157389347408458e-01
 34  1.59842061548024945e-02
 35 -6.48739002914193452e-03
 36  3.19896354339185363e-03
 37  3.39112935428724878e-12
 38  3.13378337191024043e-12
 39 -1.73876412246727944e-03
 40  3.09521576082345817e-11
 41  2.86089982083617704e-11
 42  1.29898117915976607e-03
 43  2.03439513732026124e-11
 44  1.88035236398419433e-11
 45 -3.43856910161563273e-04
 46  2.69964480542237816e-04
 47  3.81210408460364669e-12
 48  3.52341737748866662e-12
 49  4.08659913091207846e-16
 50 -2.89541618150904833e-16
 51 -3.48935487023276992e-04
 52 -2.75631216513337871e-11
 53 -2.54761742388552233e-11
 54  1.09805361322355969e-15
 55 -1.00021787947883934e-15
 56 -2.78935680764046817e-05
 57  7.73073073437848466e-12
 58  7.14590893069501046e-12
 59  7.81573317783177687e-16
 60  3.05186084740239136e-17
 61 -3.42906544100586775e-17
 62 -3.23352010490849077e-16
 63 -3.08064219716627674e-01
 64 -4.54156850809902812e-01
 65 -1.59841860763771590e-02
 66  6.48737347382879071e-03
 67 -3.19896537930387456e-03
 68 -5.08569966327813268e-11
 69 -4.70041542235656258e-11
 70 -1.73876195576161017e-03
 71  4.50985400860101724e-12
 72  4.16608661496067344e-12
 73  1.29897516006310639e-03
 74 -2.97322117897051759e-11
 75 -2.74784391013239725e-11
 76 -3.43857967282450736e-04
 77 -2.69964294065189712e-04
 78 -8.95228946496975947e-12
 79 -8.27433316901884012e-12
 80  5.32319920302068792e-18
 81  6.54208617375738617e-16
 82  3.48934441479009942e-04
 83 -1.10639100796724536e-11
 84 -1.02261424628818429e-11
 85 -5.41629080553384895e-16
 86  8.40385135552956906e-16
 87 -2.78936511313216939e-05
 88 -9.59577421122458042e-12
 89 -8.86935300047780553e-12
 90  3.01642908403060922e-16
 91  5.60013455663600144e-17
 92 -4.75211792564834365e-16
 93 -5.05036887912164033e-16
 Sym= A
 Ene= -2.06495758640375868e+01
 Spin= Alpha
 Occup=  1.00000000000000000e+00
  1 -6.23500432909177131e-07
  2  1.70410150248936763e-04
  3  1.76097151482918954e-03
  4 -1.79560349000902966e-02
  5  2.63167648514795653e-04
  6  1.10659509353557906e-11
  7  1.02289508884612473e-11
  8  4.82517563423658671e-10
  9  9.18997392975823986e-11
 10  8.49424001713105997e-11
 11  5.26481025468715216e-10
 12 -1.44363613042118910e-11
 13 -1.33446918068156807e-11
 14 -9.06518341610115372e-10
 15 -5.63593917136486692e-04
 16 -1.33239197416402186e-11
 17 -1.23149144025969293e-11
 18  2.70961097919775093e-16
 19 -2.09679453402266082e-16
 20 -7.43503177014666859e-03
 21 -1.75770056158801912e-10
 22 -1.62459491249434450e-10
 23 -7.47491225883690289e-16
 24 -5.95341538495897594e-16
 25 -5.01137004896702497e-10
 26 -2.50135837749391419e-11
 27 -2.31193478281675532e-11
 28 -3.00857546654933070e-16
 29  2.20273239864326511e-16
 30  4.72734656310046950e-16
 31 -5.28728500137933994e-16
 32 -3.08070212205126148e-01
 33 -4.54129394360990590e-01
 34 -1.69291050638381846e-02
 35  1.39527834890994327e-02
 36  1.54373626795015683e-03
 37 -1.67966566632497081e-11
 38 -1.55230419526865485e-11
 39  1.82659598825230191e-03
 40  7.52246116377433848e-11
 41  6.95256941196587715e-11
 42 -5.07190219732809970e-03
 43  2.91260296379083718e-11
 44  2.69220998719729912e-11
 45 -8.89612585598980351e-04
 46 -1.57069980619270894e-04
 47  4.19402615294412548e-12
 48  3.87657692148171840e-12
 49 -4.18425480259377160e-17
 50  1.26575702746546754e-16
 51  8.80893986312058066e-04
 52 -5.25311128104905124e-11
 53 -4.85525409596112809e-11
 54  3.76233529852163086e-16
 55  4.34640088230332487e-16
 56 -6.99755247490959216e-05
 57  9.67864387297301235e-12
 58  8.94582012162661732e-12
 59 -2.15851976917953487e-16
 60 -3.30974839259806831e-16
 61  1.84677164597454257e-16
 62  1.07054767376450714e-16
 63 -3.08070577528917922e-01
 64 -4.54129932931366387e-01
 65 -1.69291240179791046e-02
 66  1.39527911777612909e-02
 67  1.54373246907234512e-03
 68 -6.66592455480084768e-11
 69 -6.16104918524014917e-11
 70 -1.82659805000139367e-03
 71  2.13675935305057998e-10
 72  1.97495827583410736e-10
 73  5.07190373602504994e-03
 74  5.34123513929872338e-11
 75  4.93683260172719283e-11
 76  8.89612176183883583e-04
 77 -1.57070300636120178e-04
 78 -1.16212027098918851e-11
 79 -1.07414704639473416e-11
 80  4.12965136466455368e-16
 81  9.43201353952211108e-17
 82  8.80894400042955697e-04
 83  9.41810115784856725e-11
 84  8.70494562032673913e-11
 85  1.19874524339961685e-15
 86  1.12336486784209218e-16
 87  6.99754917047863098e-05
 88  1.43591053573146822e-11
 89  1.32706975133299786e-11
 90  1.29201787034562262e-16
 91  2.27355214153979944e-16
 92 -1.12631915594448766e-16
 93 -1.28585609499346899e-16
 Sym= A
 Ene= -1.14586606913575171e+01
 Spin= Alpha
 Occup=  1.00000000000000000e+00
  1 -4.67538194297931087e-01
  2 -6.12746266639770498e-01
  3 -1.96310573162266945e-02
  4  1.35769422300671596e-02
  5 -4.98816647425473383e-04
  6 -2.60362247152337942e-11
  7 -2.40640087212833727e-11
  8 -6.73185862312789617e-13
  9  5.89504231496716232e-12
 10  5.45046857607371384e-12
 11 -2.91334395784114314e-13
 12 -3.56564691674037138e-11
 13 -3.29567791025351409e-11
 14  3.21713531343656109e-13
 15 -1.09986039570175438e-03
 16 -2.60021282993625877e-11
 17 -2.40327929802607531e-11
 18 -1.24292004765866131e-15
 19 -2.97535628977152199e-16
 20  1.67005352737838674e-03
 21  3.94817595173409046e-11
 22  3.64906814021549224e-11
 23 -4.67737231593523276e-16
 24 -7.63472865913900152e-17
 25 -2.95694147343226127e-13
 26  2.60976254299672203e-11
 27  2.41229147536506944e-11
 28  4.31979581355870554e-16
 29 -4.61882547949060545e-17
 30  9.25319301015563327e-17
 31 -1.26254983715451709e-16
 32  2.09092797788416624e-04
 33  4.29511359653403835e-04
 34 -1.86298255344431252e-04
 35 -1.39505871669907229e-03
 36 -3.16538486321182389e-03
 37  4.45022772584303398e-12
 38  4.11338807840604320e-12
 39  4.54858666452435543e-04
 40 -2.47178157528304220e-11
 41 -2.28467169231592239e-11
 42  8.46761014405268990e-04
 43  3.97944263739855139e-12
 44  3.67802205048231747e-12
 45  1.55042223808919254e-03
 46 -1.72228115502332625e-04
 47 -1.54251304303497097e-13
 48 -1.42558221722575850e-13
 49  3.50708621316080447e-16
 50  3.09645391735118153e-16
 51 -1.64472657797379290e-04
 52  1.35450241353050762e-11
 53  1.25199626033227750e-11
 54 -3.43400987011683206e-16
 55 -3.14881588283559130e-16
 56  2.77244281689531351e-04
 57 -5.22283835884110010e-13
 58 -4.83033860741107279e-13
 59 -1.40423237702432240e-16
 60 -2.10330210320323794e-16
 61  4.83678881387293556e-16
 62  2.05591763574923545e-16
 63  2.09092797578652587e-04
 64  4.29511359161841315e-04
 65 -1.86298254845915500e-04
 66 -1.39505871751038880e-03
 67 -3.16538486160762318e-03
 68 -7.96694844799737192e-12
 69 -7.36356007559821175e-12
 70 -4.54858666018938718e-04
 71 -4.78322303083606984e-11
 72 -4.42117279537319537e-11
 73 -8.46761014878520636e-04
 74 -3.83441647740358479e-11
 75 -3.54417937413483685e-11
 76 -1.55042223770673958e-03
 77 -1.72228115225090203e-04
 78 -7.98939874230264653e-12
 79 -7.38399014278792130e-12
 80 -3.44821992956441267e-16
 81  1.29640756421982435e-16
 82 -1.64472657818392809e-04
 83 -2.13216022940956087e-11
 84 -1.97086970877750846e-11
 85  2.22028585354864063e-16
 86  1.00937331329235501e-16
 87 -2.77244281443550272e-04
 88 -1.90603493212217884e-11
 89 -1.76174918577032787e-11
 90  3.20692893254754467e-16
 91  3.75747129708953187e-16
 92  1.75186816504785629e-16
 93 -2.57016232890580093e-16
 Sym= A
 Ene= -1.53059780275368129e+00
 Spin= Alpha
 Occup=  1.00000000000000000e+00
  1 -7.16514837015615330e-02
  2 -1.57051837053461624e-01
  3  2.64733859282744233e-01
  4  8.97051118688768773e-02
  5 -1.21295736081685813e-03
  6 -2.58345109960646070e-09
  7 -2.38782517774783995e-09
  8  3.99161052213101689e-10
  9 -7.95730949676168090e-10
 10 -7.35479544506660143e-10
 11  2.00375177191615909e-10
 12  2.03205162518711883e-10
 13  1.87819235351848545e-10
 14  1.80223833838128567e-12
 15  3.50352369661034169e-02
 16  8.28259378414702070e-10
 17  7.65543049186757242e-10
 18  1.18475152328700875e-15
 19  4.09594109623468520e-16
 20 -3.77763417081743548e-03
 21 -8.93079750523038972e-11
 22 -8.25425397681860578e-11
 23  2.01527919966879047e-14
 24  3.21734708134962420e-16
 25  2.98530549891062946e-11
 26 -6.38122619615839387e-10
 27 -5.89804529367500363e-10
 28 -2.73530722462354845e-15
 29  3.69282265779409458e-16
 30 -2.66418002217920659e-16
 31 -4.98766763273336427e-16
 32 -6.11156934798448015e-02
 33 -1.47613270511336214e-01
 34  2.08372619603586412e-01
 35  2.91727219049998376e-01
 36  8.95721223120196364e-02
 37 -3.96995402765962159e-10
 38 -3.66932259547738980e-10
 39 -7.88778990818172904e-02
 40  1.00025446661174560e-10
 41  9.24538338807635476e-11
 42 -7.13741032246017065e-02
 43 -3.90933573176456884e-11
 44 -3.61347334903089178e-11
 45 -1.09534801284338710e-02
 46  5.86195256204450135e-03
 47  2.52692710441707981e-11
 48  2.33554358983823830e-11
 49  1.38986343387128430e-16
 50  2.71561440088828061e-16
 51  1.22617818746106801e-02
 52 -2.44589625841771732e-10
 53 -2.26069654818095786e-10
 54 -5.88948531763817829e-15
 55 -9.00220594579234958e-16
 56 -1.90138363639452690e-03
 57  5.49150711323490345e-11
 58  5.07569396862423274e-11
 59  1.24255952812777404e-15
 60  9.21007668958042024e-17
 61 -1.71598139282223901e-16
 62 -4.87983730612257135e-17
 63 -6.11156932732478536e-02
 64 -1.47613270012479397e-01
 65  2.08372618892942202e-01
 66  2.91727218181768388e-01
 67  8.95721221066951706e-02
 68  1.75621678947449333e-09
 69  1.62323652627813405e-09
 70  7.88778988096944106e-02
 71  2.04839534322356255e-09
 72  1.89329287906416900e-09
 73  7.13741030534837673e-02
 74  2.59914550815905249e-10
 75  2.40234067763402773e-10
 76  1.09534801326612863e-02
 77  5.86195254152412169e-03
 78  2.51893295093259125e-10
 79  2.32819478316382134e-10
 80 -2.75277503430676614e-16
 81 -5.05710919297739475e-16
 82  1.22617818438027701e-02
 83  8.24344484016391667e-10
 84  7.61926502925323404e-10
 85 -6.04804630848169520e-15
 86  8.84772957668475582e-16
 87  1.90138362690401045e-03
 88  1.82054109893004745e-10
 89  1.68268967993284020e-10
 90  1.85864725023708548e-15
 91  1.66605473858670136e-16
 92 -2.57485286336900256e-16
 93 -3.17948013143427613e-17
 Sym= A
 Ene= -1.47747679655905451e+00
 Spin= Alpha
 Occup=  1.00000000000000000e+00
  1 -1.03065261404572600e-10
  2 -2.27409028830208999e-10
  3  3.92981353269588781e-10
  4  1.41261609108830063e-10
  5  3.47494928133090501e-12
  6 -3.23449960643001304e-09
  7 -2.98957933662709566e-09
  8 -2.36976909750607700e-01
  9 -1.59643453842585358e-09
 10 -1.47555252593720878e-09
 11 -1.16963443690101754e-01
 12 -1.84278700461944986e-12
 13 -1.70306995324715112e-12
 14 -1.34975047017299303e-04
 15  4.73150759536786601e-11
 16  7.02260185532868416e-10
 17  6.49083012393047847e-10
 18  3.59533559538077189e-15
 19  5.38091058481843735e-17
 20 -8.65538943226477271e-12
 21  9.99803662985469231e-11
 22  9.24111080577279790e-11
 23  3.87467823020435324e-15
 24 -5.67040500344733940e-16
 25 -1.62034713851531322e-02
 26 -5.41731811032080331e-10
 27 -5.00711983333046886e-10
 28 -1.33234589086219006e-15
 29  1.88338520480527264e-16
 30  1.08521960447351251e-16
 31 -1.97704670888772565e-16
 32  6.64801878730574142e-02
 33  1.60619726338020546e-01
 34 -2.27746395165537657e-01
 35 -2.93063687669132822e-01
 36 -8.08514396094314053e-02
 37 -1.19658360655101829e-10
 38 -1.10600241459005406e-10
 39  7.72554800053290580e-02
 40  1.81454753549004117e-10
 41  1.67713601744221880e-10
 42  5.78291218548903363e-02
 43  9.25958358780930058e-12
 44  8.55730600007915380e-12
 45  1.74658585335938179e-03
 46 -5.98945770675802722e-03
 47  2.00307312312801577e-11
 48  1.85145592849670952e-11
 49  3.05772540494661909e-16
 50 -7.51437997093065983e-17
 51 -1.24547492845990711e-02
 52 -1.78611985571936709e-10
 53 -1.65087862787076688e-10
 54  3.45789691794967222e-15
 55  8.14278444766042664e-16
 56  3.26533466342847660e-03
 57  3.01687499203094390e-11
 58  2.78850548083887861e-11
 59 -1.56289040931805515e-15
 60 -1.11484235870068136e-16
 61  2.85392867994345716e-16
 62  2.80612102496990352e-16
 63 -6.64801880644505655e-02
 64 -1.60619726800420692e-01
 65  2.27746395820697584e-01
 66  2.93063688614203122e-01
 67  8.08514399134051404e-02
 68  2.22858256946387720e-09
 69  2.05983431371456857e-09
 70  7.72554802203297974e-02
 71  1.39716445668089579e-09
 72  1.29137176976825324e-09
 73  5.78291220694328659e-02
 74  3.84204072917035149e-11
 75  3.55125972092493029e-11
 76  1.74658588826877227e-03
 77  5.98945772213445651e-03
 78  3.03221737037260947e-10
 79  2.80261513068710854e-10
 80 -8.89882287296690191e-16
 81 -5.76225697209460737e-16
 82  1.24547493218733069e-02
 83  4.10267207954907347e-10
 84  3.79202379794612188e-10
 85 -6.19308332801532086e-15
 86  1.26986619737317479e-15
 87  3.26533466862178939e-03
 88  1.88172412506363838e-10
 89  1.73923340599060531e-10
 90  1.18992833906533166e-15
 91  1.70203025885438910e-16
 92 -3.21901346860738498e-16
 93 -4.16556929151710502e-18
 Sym= A
 Ene= -7.99730469308062242e-01
 Spin= Alpha
 Occup=  1.00000000000000000e+00
  1  6.54344413666840263e-02
  2  1.48786622498723736e-01
  3 -2.71748054339565392e-01
  4 -2.18058877689671748e-01
  5 -7.17348953283548484e-04
  6  2.28844556791356202e-09
  7  2.11515512519391725e-09
  8 -1.80771310959392670e-10
  9  1.16933164091039912e-09
 10  1.08078702499139198e-09
 11 -1.29486599593320877e-10
 12 -4.16669798982728793e-10
 13 -3.85119146239679584e-10
 14 -7.64955054465416896e-12
 15 -2.00820116648714360e-02
 16 -4.74753553058471916e-10
 17 -4.38804722278156230e-10
 18  3.03317240658151180e-15
 19 -7.31710750175482083e-16
 20  1.63130067026006180e-02
 21  3.85651639175575990e-10
 22  3.56450645281558605e-10
 23 -1.00150716462366067e-14
 24 -1.43612670635160324e-16
 25 -1.32181363680497037e-11
 26  5.76585263635963321e-10
 27  5.32925614324539250e-10
 28  1.83147695898659860e-15
 29 -6.67881569563515477e-17
 30  3.70684357699463277e-16
 31  5.44161227714034260e-16
 32 -3.94007493200270661e-02
 33 -9.67655488085260723e-02
 34  1.47704829969067614e-01
 35  2.16071832199212610e-01
 36  1.64135584547947744e-01
 37  1.74822037059080608e-09
 38  1.61584425377693230e-09
 39  2.46710230822400928e-01
 40  1.04442793155972118e-09
 41  9.65343267665854082e-10
 42  2.03460085662895640e-01
 43  7.37929858889858427e-10
 44  6.82049710903268395e-10
 45  7.77263029361450197e-02
 46 -7.94913550569641136e-03
 47 -3.50786938672969707e-11
 48 -3.24232999791431592e-11
 49 -6.25312514394309480e-16
 50  8.58583809876014924e-17
 51 -1.47413035438461910e-02
 52  2.03376154985162664e-10
 53  1.87978561804881112e-10
 54 -4.12080615557524122e-15
 55 -7.99789623598421062e-16
 56  2.24658429529194740e-03
 57 -5.36431647975505887e-11
 58 -4.95813756921795898e-11
 59  2.67764870484471221e-15
 60 -3.76950054693860469e-16
 61 -1.52830639942456239e-16
 62  4.63051129144454372e-17
 63 -3.94007492752415020e-02
 64 -9.67655486978969692e-02
 65  1.47704829806058646e-01
 66  2.16071831880065790e-01
 67  1.64135584237023208e-01
 68 -4.98648140448812935e-09
 69 -4.60889854343800601e-09
 70 -2.46710230392676394e-01
 71 -4.50963062352193046e-09
 72 -4.16815594135875905e-09
 73 -2.03460085357356296e-01
 74 -1.38384758552188110e-09
 75 -1.27905934846529637e-09
 76 -7.77263028417762569e-02
 77 -7.94913549182066533e-03
 78 -3.40769070909144695e-10
 79 -3.14966233539197878e-10
 80 -2.15774392564470438e-15
 81 -8.74228448461461691e-16
 82 -1.47413035311450159e-02
 83 -9.00369780806715354e-10
 84 -8.32191769888103270e-10
 85 -1.38300035573488062e-14
 86  8.28731220567914214e-16
 87 -2.24658429104942310e-03
 88 -2.03862373356148947e-10
 89 -1.88426707426687685e-10
 90 -5.10253744397242421e-15
 91  2.16895952177896800e-16
 92 -4.46085182422705729e-16
 93 -1.55275693107592667e-16
 Sym= A
 Ene= -7.42949976730290063e-01
 Spin= Alpha
 Occup=  1.00000000000000000e+00
  1 -4.92804794531530450e-11
  2 -1.12316323153708585e-10
  3  1.85075404991994933e-10
  4  3.00889637397908356e-10
  5  2.57072160594633547e-11
  6 -3.68039897806235034e-09
  7 -3.40170515337351503e-09
  8 -2.69645978516679208e-01
  9 -2.53943351794631708e-09
 10 -2.34713740025344837e-09
 11 -1.86052904889815851e-01
 12  2.86441469874997788e-10
 13  2.64753760332100960e-10
 14  2.09864565995476759e-02
 15  9.74971497733800470e-12
 16  4.27166483394728781e-10
 17  3.94819959200012914e-10
 18  1.81496312391944835e-15
 19 -4.08411078483584975e-17
 20  1.91562517187980795e-11
 21 -3.09685144807547979e-10
 22 -2.86235693750957832e-10
 23  1.76820247077220191e-15
 24  1.31485257292714578e-17
 25 -1.66300765254770062e-02
 26 -5.55991956930199989e-10
 27 -5.13892715778487145e-10
 28  7.27772627514036667e-15
 29 -3.13097086697014177e-16
 30  4.42564531417741297e-17
 31 -1.60344551674725764e-17
 32 -2.95258032810063117e-02
 33 -7.27016375642259155e-02
 34  1.10013046130459216e-01
 35  2.06898062232278274e-01
 36  1.55602218711879486e-01
 37 -8.08005770153627768e-10
 38 -7.46806779550575667e-10
 39  2.85993674481636873e-01
 40 -3.22409913971369072e-10
 41 -2.97980412485231792e-10
 42  2.21932708338100609e-01
 43 -3.37797103927041941e-10
 44 -3.12215505267908929e-10
 45  8.46067838553809792e-02
 46 -9.35713997390398740e-03
 47  7.91474942588214988e-11
 48  7.31539330173376955e-11
 49 -2.23436029744496889e-16
 50  7.45196567532991136e-17
 51 -1.78567671466370349e-02
 52 -8.53709568836239094e-11
 53 -7.89081403412353070e-11
 54 -3.78319824233123933e-15
 55 -6.07195470975427804e-16
 56  4.07506936940747570e-03
 57  3.88812635612652828e-13
 58  3.60364547392377886e-13
 59  2.67719376821850253e-15
 60 -4.73368298591146339e-16
 61 -9.83429932472411365e-17
 62  4.19273589918780399e-17
 63  2.95258033384298048e-02
 64  7.27016377046242751e-02
 65 -1.10013046338118883e-01
 66 -2.06898062582004327e-01
 67 -1.55602218999731090e-01
 68  8.61506849865110339e-09
 69  7.96273218572268783e-09
 70  2.85993674796962194e-01
 71  6.38072919139707916e-09
 72  5.89757987885744406e-09
 73  2.21932708580671184e-01
 74  2.64740017489030203e-09
 75  2.44693609446572974e-09
 76  8.46067839473044342e-02
 77  9.35713998349769691e-03
 78  5.21568097482405085e-10
 79  4.82075959979896252e-10
 80  1.95635441406559063e-15
 81  7.46466438696338357e-16
 82  1.78567671656591868e-02
 83  7.58922524321062850e-10
 84  7.01455585194392773e-10
 85  1.06841824934857108e-14
 86 -1.23348207997024584e-15
 87  4.07506937247199309e-03
 88  2.72093274754541182e-10
 89  2.51491060028935650e-10
 90  5.54106063583894257e-15
 91 -2.55790322155901735e-16
 92  4.19435305189368501e-16
 93  8.19354349991890286e-17
 Sym= A
 Ene= -7.15481656259104315e-01
 Spin= Alpha
 Occup=  1.00000000000000000e+00
  1  9.28157027975750936e-10
  2  2.12112009981624332e-09
  3 -3.88706539985045617e-09
  4 -3.25686087309234959e-09
  5 -1.33248434769787888e-09
  6  9.00411093333432938e-04
  7 -2.57778990997761359e-01
  8  3.23970665770678215e-09
  9  7.61763122601001336e-04
 10 -2.18085417397648029e-01
 11  2.74082172145266095e-09
 12  1.33480681419471606e-04
 13 -3.82142286230438763e-02
 14  4.80266660770964330e-10
 15 -6.43212094876677422e-10
 16  6.99417425365441534e-14
 17 -1.99217452096519958e-11
 18 -3.78666809332131998e-10
 19  4.06831256507865147e-10
 20 -3.62049780196215211e-10
 21  6.74513116427177359e-14
 22 -1.88089133597090958e-11
 23 -3.51664611065662537e-10
 24  3.77816798146886720e-10
 25  5.90101450014204042e-10
 26  6.69555392038634827e-05
 27 -1.91687235576694266e-02
 28  3.83800330506387801e-10
 29 -4.12344290397824841e-10
 30 -9.59476501209066009e-16
 31  1.22617638959626974e-14
 32 -1.69742559468684190e-10
 33 -4.05184528106571436e-10
 34  5.38031779628176236e-10
 35  8.95464778165363157e-10
 36 -3.17298292188670542e-10
 37  9.14396523696375915e-04
 38 -2.61782884500988966e-01
 39  1.94927721410001779e-10
 40  8.05165860983193967e-04
 41 -2.30511201790769338e-01
 42  4.22554928645197264e-10
 43  3.69113982444117718e-04
 44 -1.05673764642040091e-01
 45  4.64245698676291144e-10
 46 -1.85048652844676045e-11
 47 -3.06152308654242822e-05
 48  8.76484461369984695e-03
 49  8.01674743271477175e-12
 50 -8.61398864370511693e-12
 51 -2.37006455780813494e-11
 52 -7.41231584362190817e-05
 53  2.12207436513563615e-02
 54  2.94809260444757698e-12
 55 -3.16463905816514223e-12
 56 -3.94530795425479289e-11
 57  1.49986093925810401e-05
 58 -4.29395686535213091e-03
 59  1.75440298646910797e-11
 60 -1.88491745998015994e-11
 61 -2.79753038639547152e-16
 62 -1.01287124837217152e-15
 63 -1.69740248752827869e-10
 64 -4.05177539189527808e-10
 65  5.38019549109215847e-10
 66  8.95441741427289970e-10
 67 -3.17352583908328420e-10
 68  9.14396522965010643e-04
 69 -2.61782884292475482e-01
 70  6.38517452797192633e-09
 71  8.05165860333680538e-04
 72 -2.30511201606539123e-01
 73  5.37149647814868991e-09
 74  3.69113982157215706e-04
 75 -1.05673764559606184e-01
 76  2.19192240632492815e-09
 77  3.63084676587984006e-10
 78  3.06152308391710110e-05
 79 -8.76484460634315010e-03
 80  2.29999097438276526e-10
 81 -2.47104366257605451e-10
 82  9.00164769606390937e-10
 83  7.41231583725160918e-05
 84 -2.12207436326173685e-02
 85  5.40390395055168950e-10
 86 -5.80578677558477872e-10
 87  3.03829284712105313e-10
 88  1.49986093789827189e-05
 89 -4.29395686134618603e-03
 90  1.54404574624223599e-10
 91 -1.65887724512454481e-10
 92  3.77721344680798288e-16
 93 -4.68112353424490942e-15
 Sym= A
 Ene= -7.15481656258803111e-01
 Spin= Alpha
 Occup=  1.00000000000000000e+00
  1  1.01126044508803197e-09
  2  2.31103635198091764e-09
  3 -4.23510655834833233e-09
  4 -3.54839502507747532e-09
  5 -1.45176180586303355e-09
  6 -2.57778990998005497e-01
  7 -9.00411093336963534e-04
  8  3.52978686140291625e-09
  9 -2.18085417402400505e-01
 10 -7.61763122586631754e-04
 11  2.98624861197068203e-09
 12 -3.82142286222006342e-02
 13 -1.33480681426760995e-04
 14  5.23259316065019812e-10
 15 -7.00804140752020124e-10
 16 -2.00242785894104019e-11
 17 -6.98866651049929501e-14
 18  4.06831655651617846e-10
 19  3.78667722550564862e-10
 20 -3.94435872152483074e-10
 21 -1.91788091144116990e-11
 22 -6.59587691789566854e-14
 23  3.77818795902867124e-10
 24  3.51666167545468076e-10
 25  6.42938470997907964e-10
 26 -1.91687235590751216e-02
 27 -6.69555391986598680e-05
 28 -4.12344061290584135e-10
 29 -3.83800625143029300e-10
 30  1.30448911295826786e-14
 31 -9.91183358459110748e-16
 32 -1.84938859406278809e-10
 33 -4.41458300500409394e-10
 34  5.86199662062049223e-10
 35  9.75604172097509370e-10
 36 -3.45753090532618942e-10
 37 -2.61782884501128799e-01
 38 -9.14396523694773573e-04
 39  2.12371032422649291e-10
 40 -2.30511201789590170e-01
 41 -8.05165860982141423e-04
 42  4.60397234738254639e-10
 43 -1.05673764641409637e-01
 44 -3.69113982446324178e-04
 45  5.05824038339082564e-10
 46 -2.01608746536512953e-11
 47  8.76484461382149964e-03
 48  3.06152308650016873e-05
 49 -8.61334278199481346e-12
 50 -8.01652040372922877e-12
 51 -2.58265250106261206e-11
 52  2.12207436500530394e-02
 53  7.41231584411467534e-05
 54 -3.16454906263106910e-12
 55 -2.94739351216582149e-12
 56 -4.29858049029787712e-11
 57 -4.29395686502183523e-03
 58 -1.49986093936126906e-05
 59 -1.88492636266886590e-11
 60 -1.75443372694645126e-11
 61 -1.32285561476519670e-15
 62  1.31026090181226465e-16
 63 -1.84938843545149215e-10
 64 -4.41458247969882215e-10
 65  5.86198026204794966e-10
 66  9.75610175058175363e-10
 67 -3.45794974450794969e-10
 68 -2.61782884291414664e-01
 69 -9.14396522965445408e-04
 70  6.95685956110781860e-09
 71 -2.30511201604834765e-01
 72 -8.05165860342800304e-04
 73  5.85241636859668323e-09
 74 -1.05673764558309180e-01
 75 -3.69113982156448470e-04
 76  2.38816256418325831e-09
 77  3.95592654944394866e-10
 78 -8.76484460638915150e-03
 79 -3.06152308394208451e-05
 80 -2.47103516940636801e-10
 81 -2.29999427762545565e-10
 82  9.80759269765798169e-10
 83 -2.12207436316338843e-02
 84 -7.41231583754699736e-05
 85 -5.80578711425710944e-10
 86 -5.40388715224205336e-10
 87  3.31033188299613501e-10
 88 -4.29395686104760803e-03
 89 -1.49986093794716755e-05
 90 -1.65887933749571992e-10
 91 -1.54404577529830176e-10
 92 -5.01091515281037443e-15
 93  7.36247268830715391e-17
 Sym= A
 Ene= -5.44163565239348501e-01
 Spin= Alpha
 Occup=  1.00000000000000000e+00
  1 -2.35053421087624341e-16
  2 -5.30165296285743242e-16
  3 -2.30814099381033454e-15
  4  3.56048732010611576e-14
  5  5.43743530539599665e-15
  6  5.26003823654344740e-14
  7 -4.43781471334835468e-11
  8  2.44918354775416773e-10
  9  6.63243656483544328e-14
 10 -5.79216586566147742e-11
 11  2.29425416618973373e-09
 12  3.02242060490949947e-14
 13 -2.40333377302837391e-11
 14  2.46175582603008295e-09
 15 -8.85763576975598110e-10
 16 -4.60485519070731879e-05
 17  4.05870079648015733e-02
 18 -5.12653452619492037e-10
 19  5.53391732888950460e-10
 20 -1.50393950896351722e-09
 21 -7.81858450235486366e-05
 22  6.89126885241101161e-02
 23 -8.70434099840092366e-10
 24  9.39603545239021815e-10
 25  4.16701556207972399e-10
 26  5.39548873504198305e-15
 27 -4.83304253408630722e-12
 28  2.47608689647679160e-10
 29 -2.67285132178464084e-10
 30  1.59892056586410074e-16
 31 -8.38104036669719178e-16
 32  1.10901892115694863e-10
 33  2.91953386094358806e-10
 34 -6.57164745365680084e-10
 35 -1.09759199098260023e-10
 36 -2.68635472195304319e-09
 37 -3.74934521799577341e-04
 38  3.30465775627494796e-01
 39  2.00138893001423231e-09
 40 -3.35622590730414285e-04
 41  2.95816398103557476e-01
 42  1.93318711867740646e-09
 43 -2.08629665818151235e-04
 44  1.83885346173858405e-01
 45  1.13423850876043055e-09
 46 -6.06005144573275479e-11
 47  7.72175076775950410e-06
 48 -6.80591998945630824e-03
 49 -2.23013964839522582e-11
 50  2.40746216657143778e-11
 51 -1.17477153409705009e-10
 52  2.50041346471880727e-05
 53 -2.20385434522856194e-02
 54 -4.05403601609868512e-11