[Molden Format]
[Atoms] (AU)
N    1    7        -0.101484417824       0.042802091602       0.068436017810
H    2    1         1.386989136774      -0.428111002546       1.186385543571
H    3    1         0.546613402813       1.354670877530      -1.175145429881
H    4    1        -0.523542491817      -1.521267127815      -0.962114115933
[GTO]
  1 0
 s    6  1.00
     4173.5110000000         0.0018348000
      627.4579000000         0.0139950000
      142.9021000000         0.0685870000
       40.2343300000         0.2322410000
       12.8202100000         0.4690700000
        4.3904370000         0.3604550000
 s    3  1.00
       11.6263580000        -0.1149610000
        2.7162800000        -0.1691180000
        0.7722180000         1.1458520000
 p    3  1.00
       11.6263580000         0.0675800000
        2.7162800000         0.3239070000
        0.7722180000         0.7408950000
 s    1  1.00
        0.2120313000         1.0000000000
 p    1  1.00
        0.2120313000         1.0000000000
 d    1  1.00
        0.8000000000         1.0000000000

  2 0
 s    3  1.00
       18.7311370000         0.0334946000
        2.8253937000         0.2347269500
        0.6401217000         0.8137573300
 s    1  1.00
        0.1612778000         1.0000000000

  3 0
 s    3  1.00
       18.7311370000         0.0334946000
        2.8253937000         0.2347269500
        0.6401217000         0.8137573300
 s    1  1.00
        0.1612778000         1.0000000000

  4 0
 s    3  1.00
       18.7311370000         0.0334946000
        2.8253937000         0.2347269500
        0.6401217000         0.8137573300
 s    1  1.00
        0.1612778000         1.0000000000

[MO]
 Sym= A
 Ene= -1.43777281859834574e+01
 Spin= Alpha
 Occup=  1.00000000000000000e+00
  1  9.92031682860494590e-01
  2  3.71208119339671294e-02
  3  1.03226007420083310e-03
  4 -4.35754580106640407e-04
  5 -6.96345770161219211e-04
  6  6.09482382867741583e-03
  7 -1.29986651637975444e-04
  8  5.49567538525050784e-05
  9  8.77777331142213851e-05
 10 -9.67388865562439706e-03
 11 -9.62681909621737608e-03
 12 -9.64264540708872041e-03
 13  4.82797774221944062e-05
 14  7.73217158454610876e-05
 15 -3.26427185042969971e-05
 16  3.02888281945030925e-04
 17 -7.23760157832090438e-04
 18  3.02899378567492541e-04
 19 -7.23707133320772690e-04
 20  3.03010624152968717e-04
 21 -7.23779027719643228e-04
 Sym= A
 Ene= -8.59143462678152781e-01
 Spin= Alpha
 Occup=  1.00000000000000000e+00
  1 -1.99796758755977494e-01
  2  4.10910399262524317e-01
  3  8.74327427818629710e-02
  4 -3.69337558148465847e-02
  5 -5.89835606808501028e-02
  6  4.37924409222803346e-01
  7  4.69057013232563463e-02
  8 -1.98023759989231288e-02
  9 -3.16524667728944609e-02
 10  1.48441049037447825e-03
 11  7.37962273043534563e-03
 12  5.39576350989722821e-03
 13  6.06183085218933888e-03
 14  9.68332614737734201e-03
 15 -4.07500244203988851e-03
 16  1.38190148605380869e-01
 17  7.99604731049192649e-03
 18  1.38169260888808654e-01
 19  7.98705104661176848e-03
 20  1.38260742134419190e-01
 21  7.98542676018246592e-03
 Sym= A
 Ene= -4.61125728718097427e-01
 Spin= Alpha
 Occup=  1.00000000000000000e+00
  1  1.38696585438593628e-05
  2 -3.18709682349442995e-05
  3 -2.87561379492059566e-01
  4 -3.09460492779420948e-01
  5 -2.32740458169495290e-01
  6 -4.49108762625887567e-05
  7 -1.52468503227599750e-01
  8 -1.64077990128310147e-01
  9 -1.23401404625114036e-01
 10 -2.42122106857485184e-02
 11  1.55560001286729650e-02
 12  8.67043604171163773e-03
 13 -4.94241917299039282e-03
 14 -5.42364722882787524e-03
 15  4.13077638128514016e-02
 16 -1.78665440401259229e-01
 17 -1.14371067825875181e-01
 18 -9.97459160505210218e-02
 19 -6.38589364463534731e-02
 20  2.78377433722981960e-01
 21  1.78181522481013127e-01
 Sym= A
 Ene= -4.61050423935604470e-01
 Spin= Alpha
 Occup=  1.00000000000000000e+00
  1  3.47817497815080667e-06
  2 -5.82614908335769975e-06
  3  8.64733533900908097e-02
  4 -3.33899722161926260e-01
  5  3.37120442243862339e-01
  6 -1.68563642233650767e-05
  7  4.58563947913598544e-02
  8 -1.77039875661514051e-01
  9  1.78756172645324340e-01
 10  1.13818468183405856e-02
 11  4.35277817912134261e-03
 12 -1.57330156737584270e-02
 13 -3.41916642013480529e-02
 14  3.61102823023245201e-02
 15  1.73132324590658769e-02
 16  2.18291948733840807e-01
 17  1.39775431083490193e-01
 18 -2.63869200402555848e-01
 19 -1.68970576254607124e-01
 20  4.55482750202374082e-02
 21  2.91710858598096812e-02
 Sym= A
 Ene= -2.64084793667158368e-01
 Spin= Alpha
 Occup=  1.00000000000000000e+00
  1 -7.26031119469052189e-02
  2  1.59741643757330354e-01
  3 -4.35121629973686974e-01
  4  1.83636596405802599e-01
  5  2.93484797345559711e-01
  6  3.13250385243581897e-01
  7 -3.70110954780823842e-01
  8  1.56200184192493458e-01
  9  2.49643827249080602e-01
 10 -2.16709243993169036e-02
 11  7.06607461907064836e-03
 12 -2.60854274877249425e-03
 13  2.94985400669324736e-02
 14  4.71403542025638500e-02
 15 -1.99083929675200333e-02
 16 -6.49380822426938592e-02
 17 -5.78339891698937611e-02
 18 -6.49401597048721996e-02
 19 -5.78216340690946087e-02
 20 -6.49187238543902229e-02
 21 -5.77940610476553526e-02
 Sym= A
 Ene=  9.64291482742750672e-02
 Spin= Alpha
 Occup=  0.00000000000000000e+00
  1 -1.27930863227198960e-01
  2  1.59498731948483602e-01
  3  1.48944455842326462e-01
  4 -6.26496634941681591e-02
  5 -1.00340427952931785e-01
  6  1.84095188393531739e+00
  7  3.68695918608746787e-01
  8 -1.55235066616536688e-01
  9 -2.48474038416961529e-01
 10 -2.86107321085290883e-02
 11 -3.14310950989233201e-02
 12 -3.04855428627613841e-02
 13 -2.86828603197768596e-03
 14 -4.59363450436576365e-03
 15  1.91214762009653911e-03
 16 -6.50988973112885394e-02
 17 -9.24952717368076049e-01
 18 -6.51213258393795597e-02
 19 -9.25024665670500013e-01
 20 -6.49524550605816847e-02
 21 -9.24436022017285808e-01
 Sym= A
 Ene=  1.77545216003938688e-01
 Spin= Alpha
 Occup=  0.00000000000000000e+00
  1  1.51062893856046914e-05
  2 -1.04789483715844248e-05
  3 -7.49717597158871818e-02
  4  2.76588824381936493e-01
  5 -2.84191308379733443e-01
  6 -3.30228321196007247e-04
  7 -1.93246353009387334e-01
  8  7.12858606906859205e-01
  9 -7.32427303094363213e-01
 10 -2.24851239844273782e-03
 11 -1.14654656334399491e-02
 12  1.37334799856209579e-02
 13  1.71157437649030950e-02
 14 -7.09546571014630766e-03
 15  1.72788634290544979e-03
 16  9.05018325924974582e-02
 17  1.28863435421207306e+00
 18 -1.07982828062456446e-01
 19 -1.53723825966504801e+00
 20  1.74722983155090779e-02
 21  2.49023034216432765e-01
 Sym= A
 Ene=  1.77593385050119762e-01
 Spin= Alpha
 Occup=  0.00000000000000000e+00
  1  4.41300265157846709e-05
  2 -8.68706913341502831e-06
  3  2.39773812595407476e-01
  4  2.61919049035547691e-01
  5  1.91657391780552327e-01
  6 -9.00313558883083175e-04
  7  6.18089755784152151e-01
  8  6.75309658302803095e-01
  9  4.94181610182978681e-01
 10  1.47562099735657620e-02
 11 -4.20003943308701420e-03
 12 -1.04836443478288910e-02
 13  1.60682333733536270e-02
 14  6.93758136817280210e-04
 15 -6.87905001082228344e-03
 16 -7.23846395984924090e-02
 17 -1.03113842639723496e+00
 18 -4.21334670665236416e-02
 19 -5.99933331798320091e-01
 20  1.14419715393323990e-01
 21  1.63228726078518438e+00
 Sym= A
 Ene=  6.90768872788260380e-01
 Spin= Alpha
 Occup=  0.00000000000000000e+00
  1 -7.04441540516565141e-06
  2 -2.78533693632716129e-05
  3 -6.81206122140374237e-02
  4  2.25013179611548625e-01
  5 -2.41593939648070244e-01
  6  2.34601094221508497e-04
  7  2.27108804202387105e-01
  8 -7.50445601841797538e-01
  9  8.05951576254093749e-01
 10 -5.88690724966772425e-02
 11  6.65080358516281084e-02
 12 -7.64638452280891247e-03
 13  8.80531014044697302e-02
 14 -1.79692522653631531e-01
 15 -1.17826200698884470e-01
 16 -6.39266215985477837e-01
 17  1.26766001116425886e-01
 18  7.38503291489578495e-01
 19 -1.46623391774426209e-01
 20 -9.92291189461586287e-02
 21  1.95968298655601926e-02
 Sym= A
 Ene=  6.90836228748338943e-01
 Spin= Alpha
 Occup=  0.00000000000000000e+00
  1 -2.86693222501946602e-06
  2 -1.37888846448685278e-04
  3  1.98472770542249627e-01
  4  2.25234064238582832e-01
  5  1.53797078651155800e-01
  6  5.45033064020816532e-04
  7 -6.62455726084983931e-01
  8 -7.51137801690311191e-01
  9 -5.12740820009177645e-01
 10  3.73403992348056782e-02
 11 -6.60561447366389970e-02
 12  2.86293275666682848e-02
 13 -9.16988078310369131e-02
 14  2.24822513405137023e-02
 15 -2.18546898824627051e-01
 16  4.83731891088317267e-01
 17 -9.57043910885057164e-02
 18  3.11866472945305118e-01
 19 -6.17916304347497086e-02
 20 -7.95125811103472691e-01
 21  1.56744981424599361e-01
 Sym= A
 Ene=  7.36023118873728399e-01
 Spin= Alpha
 Occup=  0.00000000000000000e+00
  1 -1.68782386911550779e-02
  2  1.58647968977036175e-01
  3 -7.69239674885854541e-01
  4  3.24496006513563195e-01
  5  5.18754607192172479e-01
  6  5.24325302496351162e-02
  7  8.74355273989689263e-01
  8 -3.68626799123120574e-01
  9 -5.89557384552871433e-01
 10  4.85706245706215220e-02
 11  5.21584021670759360e-02
 12  5.09371407675133225e-02
 13  3.68778943411474753e-03
 14  5.88881048257289784e-03
 15 -2.39998363858570781e-03
 16 -4.44383185154250543e-02
 17 -1.34612697591170616e-01
 18 -4.45644615716624809e-02
 19 -1.34561822450654789e-01
 20 -4.42803719878553798e-02
 21 -1.34513591366484553e-01
 Sym= A
 Ene=  9.06532318651261160e-01
 Spin= Alpha
 Occup=  0.00000000000000000e+00
  1  6.18904643091262377e-02
  2 -6.67509345598068404e-01
  3 -1.93036410134978215e-01
  4  5.89199716618494240e-02
  5  1.17279576768153510e-01
  6  9.96087233124737570e-01
  7 -6.21399112722656032e-03
  8  3.50201333792267630e-02
  9  2.27689492852337673e-02
 10 -1.57680460434333952e-01
 11 -4.42539027153824455e-02
 12 -8.17608659594721149e-02
 13  1.16993773169797366e-01
 14  1.87674837644254688e-01
 15 -8.29056071497021457e-02
 16  7.21164276190198628e-01
 17 -5.85378277768843103e-01
 18  7.24114096422406650e-01
 19 -5.93395721345385541e-01
 20  7.05477036920249878e-01
 21 -5.42290254138926953e-01
 Sym= A
 Ene=  9.11847481555643768e-01
 Spin= Alpha
 Occup=  0.00000000000000000e+00
  1  3.62625179177797320e-04
  2 -3.99194207761599529e-03
  3 -2.00217678044394831e-01
  4  6.73951180427897145e-01
  5 -7.15927889117929928e-01
  6  6.02838518347805028e-03
  7  2.84088015128356353e-01
  8 -9.61205597513830834e-01
  9  1.02291218329921851e+00
 10  4.23322038789290048e-02
 11 -4.22674882689822590e-02
 12 -1.76799164310047175e-03
 13 -7.00146995068846173e-02
 14  1.33249163346623234e-01
 15  8.40385620630789421e-02
 16  4.32654227922490309e-01
 17 -1.16626467257356881e+00
 18 -4.94086814141103337e-01
 19  1.34915491547562882e+00
 20  7.41035423960129669e-02
 21 -1.93118165955805693e-01
 Sym= A
 Ene=  9.11983101293901144e-01
 Spin= Alpha
 Occup=  0.00000000000000000e+00
  1  1.30131004168013891e-03
  2 -1.38773771392446590e-02
  3  5.88208773693491338e-01
  4  6.67296170142518852e-01
  5  4.63846726422593114e-01
  6  2.05667181695321430e-02
  7 -8.45297340870736602e-01
  8 -9.49748614575576133e-01
  9 -6.57914951546825111e-01
 10 -3.73687629185116416e-02
 11  4.89588541268690669e-02
 12 -1.74097622691129425e-02
 13  6.08916680167688393e-02
 14 -1.31319680230578221e-02
 15  1.57983293267874525e-01
 16 -3.13238251322911165e-01
 17  8.78539324245057429e-01
 18 -1.92036085826257419e-01
 19  5.49683692403289514e-01
 20  5.50029679313594588e-01
 21 -1.46386862416395025e+00
 Sym= A
 Ene=  1.14871541609217309e+00
 Spin= Alpha
 Occup=  0.00000000000000000e+00
  1  9.21511130792104366e-02
  2  1.54404160997573259e+00
  3  1.18420229186335255e-01
  4 -4.99751835881181092e-02
  5 -7.99242287730719814e-02
  6 -4.17324438277618448e+00
  7 -6.46410493821984788e-01
  8  2.72825358347403402e-01
  9  4.36025172161477736e-01
 10  2.15389771193111479e-01
 11  3.80221866809081210e-01
 12  3.24719628892625567e-01
 13  1.69345941152241997e-01
 14  2.70569394693753240e-01
 15 -1.14228746931945346e-01
 16  3.40844316491417054e-01
 17  8.08743386289874966e-01
 18  3.40848453501363724e-01
 19  8.08664055783627322e-01
 20  3.40698996731265358e-01
 21  8.09067029173744845e-01
 Sym= A
 Ene=  1.67802087221764795e+00
 Spin= Alpha
 Occup=  0.00000000000000000e+00
  1  1.08110437288296778e-06
  2  4.95938680342487121e-05
  3 -7.53187419983180652e-03
  4 -1.64463015518948874e-02
  5 -8.72399876265108807e-04
  6 -1.07282388802821963e-04
  7 -1.95966018666347622e-02
  8 -4.27250410350781470e-02
  9 -2.25386433903471736e-03
 10  6.17676472479895211e-01
 11 -4.64154496436430808e-01
 12 -1.53515007422740740e-01
 13  1.30261552392749880e+00
 14 -2.49565611792112937e-02
 15  2.39232297640980779e-01
 16  5.16321577230276392e-03
 17  8.54699776783897944e-04
 18  2.95474735025253489e-02
 19  4.72304887064573745e-03
 20 -3.46646588401279751e-02
 21 -5.51511347277085142e-03
 Sym= A
 Ene=  1.67804763031161408e+00
 Spin= Alpha
 Occup=  0.00000000000000000e+00
  1  1.65388853135232511e-07
  2  2.70635971188292227e-06
  3 -8.38745876552354427e-03
  4  4.65360538027228057e-03
  5 -1.53316961658040117e-02
  6  4.95006869846939940e-07
  7 -2.18059078886379092e-02
  8  1.20817597744331852e-02
  9 -3.98696652516263711e-02
 10  3.70777999448946349e-01
 11  6.05654346617059525e-01
 12 -9.76453418145444729e-01
 13 -1.01553539265037435e-01
 14  2.96448138630520672e-03
 15 -2.64386704271080797e-01
 16  3.70134539701212836e-02
 17  5.93037474345076403e-03
 18 -2.29207948334036911e-02
 19 -3.69119887182176379e-03
 20 -1.40183368500023837e-02
 21 -2.26755665105628744e-03
 Sym= A
 Ene=  1.95043907681685913e+00
 Spin= Alpha
 Occup=  0.00000000000000000e+00
  1 -5.54090900571587164e-02
  2 -4.48231137856921535e-01
  3  2.19029488373876993e-02
  4 -9.32850872541867576e-03
  5 -1.48185014658498513e-02
  6  1.52913450330277967e+00
  7  3.46238290403077797e-01
  8 -1.45911128089641962e-01
  9 -2.33415735421937720e-01
 10 -4.91991318740632788e-01
 11  2.70751836878220076e-01
 12  1.38508498985942894e-02
 13  7.83948892826577759e-01
 14  1.25236004381332000e+00
 15 -5.28995312208498825e-01
 16 -4.52537966658074775e-01
 17 -2.09883811573605084e-01
 18 -4.52629919614245813e-01
 19 -2.09841058526344770e-01
 20 -4.52378278284945423e-01
 21 -2.09857575962601184e-01
 Sym= A
 Ene=  2.38444591907276182e+00
 Spin= Alpha
 Occup=  0.00000000000000000e+00
  1 -2.04175700731989987e-05
  2  1.06388757360979949e-05
  3  1.20500114032811387e-02
  4 -4.67215363601272068e-02
  5  4.70473857903001419e-02
  6  2.92481462018059858e-04
  7  1.17609988314001018e-01
  8 -4.56251949557588465e-01
  9  4.59691512513783929e-01
 10  4.61058049773934053e-01
 11 -3.44275536766647461e-01
 12 -1.16855081806001862e-01
 13 -8.52921970206905078e-01
 14  1.44441785942942080e+00
 15  9.39549078882230937e-01
 16 -6.97087008931911001e-01
 17  1.33350697806017531e-02
 18  8.43517885055470762e-01
 19 -1.62241947553984980e-02
 20 -1.46784427134841911e-01
 21  2.78306638656870831e-03
 Sym= A
 Ene=  2.38468733890732665e+00
 Spin= Alpha
 Occup=  0.00000000000000000e+00
  1  4.58016775806944782e-05
  2 -3.94679316906568553e-05
  3  4.02363601588134195e-02
  4  4.33212932004594375e-02
  5  3.26884859810322864e-02
  6 -5.54612076375401346e-04
  7  3.92598549133557628e-01
  8  4.21989535834427332e-01
  9  3.18354352733032142e-01
 10  4.82231689342718872e-01
 11 -5.71331847476059806e-01
 12  8.92572520372476308e-02
 13 -5.28618818822168879e-01
 14  2.33389634954785735e-01
 15 -1.70840607205136208e+00
 16 -5.71613284126503030e-01
 17  1.09766811604678789e-02
 18 -3.17566150887760745e-01
 19  6.12508063116418058e-03
 20  8.89968292673112282e-01
 21 -1.69651640479991685e-02
 Sym= A
 Ene=  3.67500725154979468e+00
 Spin= Alpha
 Occup=  0.00000000000000000e+00
  1  4.67625816462413524e-01
  2 -1.19523904934715719e+00
  3  7.67783840181480298e-02
  4 -3.24336747198018943e-02
  5 -5.17968462036075203e-02
  6 -3.13005267227969552e+00
  7 -2.46258276332259191e-01
  8  1.03896161112209590e-01
  9  1.66073912818633235e-01
 10  1.50903476673237957e+00
 11  1.50285075609540408e+00
 12  1.50490633011749653e+00
 13 -6.38127972202545343e-03
 14 -1.01788542463183349e-02
 15  4.44252200650489294e-03
 16 -1.42084237420643772e-01
 17  5.52058100616700131e-01
 18 -1.42028495283699457e-01
 19  5.52001318496634363e-01
 20 -1.42228883189390309e-01
 21  5.52183126403206659e-01
 Sym= A
 Ene= -1.43777281859834538e+01
 Spin= Beta
 Occup=  1.00000000000000000e+00
  1  9.92031682860494923e-01
  2  3.71208119339669143e-02
  3  1.03226007420081532e-03
  4 -4.35754580106635636e-04
  5 -6.96345770161215199e-04
  6  6.09482382867825197e-03
  7 -1.29986651637870493e-04
  8  5.49567538524842617e-05
  9  8.77777331141537309e-05
 10 -9.67388865562452197e-03
 11 -9.62681909621743506e-03
 12 -9.64264540708881061e-03
 13  4.82797774222187465e-05
 14  7.73217158454786517e-05
 15 -3.26427185043171633e-05
 16  3.02888281945002031e-04
 17 -7.23760157832269114e-04
 18  3.02899378567426730e-04
 19 -7.23707133320994735e-04
 20  3.03010624152917542e-04
 21 -7.23779027719795884e-04
 Sym= A
 Ene= -8.59143462678154557e-01
 Spin= Beta
 Occup=  1.00000000000000000e+00
  1 -1.99796758755977522e-01
  2  4.10910399262523984e-01
  3  8.74327427818632763e-02
  4 -3.69337558148464390e-02
  5 -5.89835606808500543e-02
  6  4.37924409222805733e-01
  7  4.69057013232562769e-02
  8 -1.98023759989231739e-02
  9 -3.16524667728940931e-02
 10  1.48441049037364319e-03
 11  7.37962273043474802e-03
 12  5.39576350989655427e-03
 13  6.06183085218937878e-03
 14  9.68332614737726222e-03
 15 -4.07500244203984514e-03
 16  1.38190148605380786e-01
 17  7.99604731049147546e-03
 18  1.38169260888808682e-01
 19  7.98705104661118041e-03
 20  1.38260742134418857e-01
 21  7.98542676018200275e-03
 Sym= A
 Ene= -4.61125728718096484e-01
 Spin= Beta
 Occup=  1.00000000000000000e+00
  1  1.38696585437701143e-05
  2 -3.18709682342038097e-05
  3 -2.87561379492727309e-01
  4 -3.09460492776844176e-01
  5 -2.32740458172097403e-01
  6 -4.49108762640213537e-05
  7 -1.52468503227954438e-01
  8 -1.64077990126943518e-01
  9 -1.23401404626493461e-01
 10 -2.42122106858361080e-02
 11  1.55560001286396288e-02
 12  8.67043604183313082e-03
 13 -4.94241917272650755e-03
 14 -5.42364722910647617e-03
 15  4.13077638127181263e-02
 16 -1.78665440402943493e-01
 17 -1.14371067826953346e-01
 18 -9.97459160484844148e-02
 19 -6.38589364450490443e-02
 20  2.78377433722630963e-01
 21  1.78181522480788473e-01
 Sym= A
 Ene= -4.61050423935603915e-01
 Spin= Beta
 Occup=  1.00000000000000000e+00
  1  3.47817497826928752e-06
  2 -5.82614908403889043e-06
  3  8.64733533878714322e-02
  4 -3.33899722164314738e-01
  5  3.37120442242066387e-01
  6 -1.68563642229691159e-05
  7  4.58563947901834759e-02
  8 -1.77039875662779872e-01
  9  1.78756172644372047e-01
 10  1.13818468181534314e-02
 11  4.35277817924135425e-03
 12 -1.57330156736917304e-02
 13 -3.41916642013863695e-02
 14  3.61102823022824010e-02
 15  1.73132324593847330e-02
 16  2.18291948732462077e-01
 17  1.39775431082607232e-01
 18 -2.63869200403325510e-01
 19 -1.68970576255099897e-01
 20  4.55482750223864946e-02
 21  2.91710858611845085e-02
 Sym= A
 Ene= -2.64084793667157425e-01
 Spin= Beta
 Occup=  1.00000000000000000e+00
  1 -7.26031119469053993e-02
  2  1.59741643757329771e-01
  3 -4.35121629973686030e-01
  4  1.83636596405802738e-01
  5  2.93484797345559878e-01
  6  3.13250385243584895e-01
  7 -3.70110954780823620e-01
  8  1.56200184192493041e-01
  9  2.49643827249080574e-01
 10 -2.16709243993169764e-02
 11  7.06607461906997355e-03
 12 -2.60854274877314911e-03
 13  2.94985400669318942e-02
 14  4.71403542025639610e-02
 15 -1.99083929675194261e-02
 16 -6.49380822426944976e-02
 17 -5.78339891698942191e-02
 18 -6.49401597048714779e-02
 19 -5.78216340690958508e-02
 20 -6.49187238543904310e-02
 21 -5.77940610476564212e-02
 Sym= A
 Ene=  9.64291482742763995e-02
 Spin= Beta
 Occup=  0.00000000000000000e+00
  1 -1.27930863227198682e-01
  2  1.59498731948488043e-01
  3  1.48944455842326490e-01
  4 -6.26496634941679648e-02
  5 -1.00340427952933020e-01
  6  1.84095188393530607e+00
  7  3.68695918608743733e-01
  8 -1.55235066616533995e-01
  9 -2.48474038416963167e-01
 10 -2.86107321085282175e-02
 11 -3.14310950989221127e-02
 12 -3.04855428627603953e-02
 13 -2.86828603197732167e-03
 14 -4.59363450436654341e-03
 15  1.91214762009690210e-03
 16 -6.50988973112875957e-02
 17 -9.24952717368069166e-01
 18 -6.51213258393793931e-02
 19 -9.25024665670502677e-01
 20 -6.49524550605811157e-02
 21 -9.24436022017283698e-01
 Sym= A
 Ene=  1.77545216003938466e-01
 Spin= Beta
 Occup=  0.00000000000000000e+00
  1  1.51062893859553579e-05
  2 -1.04789483725901459e-05
  3 -7.49717597152651516e-02
  4  2.76588824382616894e-01
  5 -2.84191308379235008e-01
  6 -3.30228321201605417e-04
  7 -1.93246353007782784e-01
  8  7.12858606908613024e-01
  9 -7.32427303093079685e-01
 10 -2.24851239840423997e-03
 11 -1.14654656334512561e-02
 12  1.37334799855934175e-02
 13  1.71157437649443640e-02
 14 -7.09546571014388859e-03
 15  1.72788634288836081e-03
 16  9.05018325923084566e-02
 17  1.28863435420939854e+00
 18 -1.07982828062564734e-01
 19 -1.53723825966660499e+00
 20  1.74722983158048274e-02
 21  2.49023034220675649e-01
 Sym= A
 Ene=  1.77593385050120373e-01
 Spin= Beta
 Occup=  0.00000000000000000e+00
  1  4.41300265157736052e-05
  2 -8.68706913246219926e-06
  3  2.39773812595601737e-01
  4  2.61919049034830043e-01
  5  1.91657391781290098e-01
  6 -9.00313558883934274e-04
  7  6.18089755784654971e-01
  8  6.75309658300951021e-01
  9  4.94181610184881936e-01
 10  1.47562099735720070e-02
 11 -4.20003943305689506e-03
 12 -1.04836443478645066e-02
 13  1.60682333733089301e-02
 14  6.93758136836187611e-04
 15 -6.87905001082636698e-03
 16 -7.23846395987273461e-02
 17 -1.03113842640058317e+00
 18 -4.21334670662431646e-02
 19 -5.99933331794327174e-01
 20  1.14419715393278720e-01
 21  1.63228726078453823e+00
 Sym= A
 Ene=  6.90768872788260491e-01
 Spin= Beta
 Occup=  0.00000000000000000e+00
  1 -7.04441540543282508e-06
  2 -2.78533693636945602e-05
  3 -6.81206122132663877e-02
  4  2.25013179612428088e-01
  5 -2.41593939647469891e-01
  6  2.34601094226678190e-04
  7  2.27108804199808251e-01
  8 -7.50445601844729415e-01
  9  8.05951576252093016e-01
 10 -5.88690724965318102e-02
 11  6.65080358513695791e-02
 12 -7.64638452269683286e-03
 13  8.80531014041117943e-02
 14 -1.79692522653544379e-01
 15 -1.17826200699737260e-01
 16 -6.39266215983592012e-01
 17  1.26766001116049437e-01
 18  7.38503291490792968e-01
 19 -1.46623391774665907e-01
 20 -9.92291189492622017e-02
 21  1.95968298661720712e-02
 Sym= A
 Ene=  6.90836228748339498e-01
 Spin= Beta
 Occup=  0.00000000000000000e+00
  1 -2.86693222502138200e-06
  2 -1.37888846448537691e-04
  3  1.98472770542516247e-01
  4  2.25234064237705534e-01
  5  1.53797078652100072e-01
  6  5.45033064020205042e-04
  7 -6.62455726085870888e-01
  8 -7.51137801687385531e-01
  9 -5.12740820012323573e-01
 10  3.73403992350350988e-02
 11 -6.60561447368983728e-02
 12  2.86293275666986043e-02
 13 -9.16988078313801802e-02
 14  2.24822513412141003e-02
 15 -2.18546898824167224e-01
 16  4.83731891090809774e-01
 17 -9.57043910889980448e-02
 18  3.11866472942424033e-01
 19 -6.17916304341771319e-02
 20 -7.95125811103085001e-01
 21  1.56744981424519925e-01
 Sym= A
 Ene=  7.36023118873728621e-01
 Spin= Beta
 Occup=  0.00000000000000000e+00
  1 -1.68782386911550883e-02
  2  1.58647968977037729e-01
  3 -7.69239674885852431e-01
  4  3.24496006513563140e-01
  5  5.18754607192177031e-01
  6  5.24325302496322573e-02
  7  8.74355273989685156e-01
  8 -3.68626799123119853e-01
  9 -5.89557384552879538e-01
 10  4.85706245706215498e-02
 11  5.21584021670774625e-02
 12  5.09371407675140789e-02
 13  3.68778943411591153e-03
 14  5.88881048257257605e-03
 15 -2.39998363858345744e-03
 16 -4.44383185154246449e-02
 17 -1.34612697591164981e-01
 18 -4.45644615716652981e-02
 19 -1.34561822450653845e-01
 20 -4.42803719878538740e-02
 21 -1.34513591366490409e-01
 Sym= A
 Ene=  9.06532318651262825e-01
 Spin= Beta
 Occup=  0.00000000000000000e+00
  1  6.18904643091266540e-02
  2 -6.67509345598059634e-01
  3 -1.93036410134991204e-01
  4  5.89199716618992592e-02
  5  1.17279576768103050e-01
  6  9.96087233124715588e-01
  7 -6.21399112721113950e-03
  8  3.50201333791564859e-02
  9  2.27689492853073230e-02
 10 -1.57680460434330039e-01
 11 -4.42539027153831602e-02
 12 -8.17608659594699638e-02
 13  1.16993773169793244e-01
 14  1.87674837644264098e-01
 15 -8.29056071496961366e-02
 16  7.21164276190229825e-01
 17 -5.85378277768919375e-01
 18  7.24114096422374121e-01
 19 -5.93395721345285732e-01
 20  7.05477036920257317e-01
 21 -5.42290254138939498e-01
 Sym= A
 Ene=  9.11847481555643657e-01
 Spin= Beta
 Occup=  0.00000000000000000e+00
  1  3.62625179170052321e-04
  2 -3.99194207753272596e-03
  3 -2.00217678045885389e-01
  4  6.73951180426188512e-01
  5 -7.15927889119121641e-01
  6  6.02838518335474700e-03
  7  2.84088015130517180e-01
  8 -9.61205597511406551e-01
  9  1.02291218330089495e+00
 10  4.23322038790362454e-02
 11 -4.22674882691045015e-02
 12 -1.76799164304975950e-03
 13 -7.00146995070489303e-02
 14  1.33249163346643412e-01
 15  8.40385620626812185e-02
 16  4.32654227923240653e-01
 17 -1.16626467257577149e+00
 18 -4.94086814140664410e-01
 19  1.34915491547426547e+00
 20  7.41035423945569510e-02
 21 -1.93118165952027326e-01
 Sym= A
 Ene=  9.11983101293902032e-01
 Spin= Beta
 Occup=  0.00000000000000000e+00
  1  1.30131004168072568e-03
  2 -1.38773771392579712e-02
  3  5.88208773692982190e-01
  4  6.67296170144239698e-01
  5  4.63846726420760858e-01
  6  2.05667181695565887e-02
  7 -8.45297340870010627e-01
  8 -9.49748614578030614e-01
  9 -6.57914951544209425e-01
 10 -3.73687629184048312e-02
 11  4.89588541267602304e-02
 12 -1.74097622691182369e-02
 13  6.08916680165893925e-02
 14 -1.31319680227185605e-02
 15  1.57983293268090436e-01
 16 -3.13238251321809547e-01
 17  8.78539324242078257e-01
 18 -1.92036085827522102e-01
 19  5.49683692406735869e-01
 20  5.50029679313783215e-01
 21 -1.46386862416444496e+00
 Sym= A
 Ene=  1.14871541609217687e+00
 Spin= Beta
 Occup=  0.00000000000000000e+00
  1  9.21511130792103256e-02
  2  1.54404160997573570e+00
  3  1.18420229186337711e-01
  4 -4.99751835881164647e-02
  5 -7.99242287730718426e-02
  6 -4.17324438277619425e+00
  7 -6.46410493821988119e-01
  8  2.72825358347399793e-01
  9  4.36025172161476793e-01
 10  2.15389771193111701e-01
 11  3.80221866809082210e-01
 12  3.24719628892624956e-01
 13  1.69345941152242829e-01
 14  2.70569394693755683e-01
 15 -1.14228746931946887e-01
 16  3.40844316491410504e-01
 17  8.08743386289884403e-01
 18  3.40848453501359061e-01
 19  8.08664055783633762e-01
 20  3.40698996731261694e-01
 21  8.09067029173745844e-01
 Sym= A
 Ene=  1.67802087221764751e+00
 Spin= Beta
 Occup=  0.00000000000000000e+00
  1  1.08110437282093977e-06
  2  4.95938680335457357e-05
  3 -7.53187419984409790e-03
  4 -1.64463015518876848e-02
  5 -8.72399876288437476e-04
  6 -1.07282388800707497e-04
  7 -1.95966018666684054e-02
  8 -4.27250410350594398e-02
  9 -2.25386433909677449e-03
 10  6.17676472480463423e-01
 11 -4.64154496435498665e-01
 12 -1.53515007424241429e-01
 13  1.30261552392734226e+00
 14 -2.49565611792055067e-02
 15  2.39232297640572522e-01
 16  5.16321577235923264e-03
 17  8.54699776793139791e-04
 18  2.95474735024890516e-02
 19  4.72304887063976307e-03
 20 -3.46646588401495204e-02
 21 -5.51511347277507460e-03
 Sym= A
 Ene=  1.67804763031161497e+00
 Spin= Beta
 Occup=  0.00000000000000000e+00
  1  1.65388853224120705e-07
  2  2.70635970995486098e-06
  3 -8.38745876551180713e-03
  4  4.65360538029829535e-03
  5 -1.53316961658023984e-02
  6  4.95006872808575817e-07
  7 -2.18059078886076972e-02
  8  1.20817597744970404e-02
  9 -3.98696652516227074e-02
 10  3.70777999447997053e-01
 11  6.05654346617772288e-01
 12 -9.76453418145208030e-01
 13 -1.01553539267040679e-01
 14  2.96448138634273833e-03
 15 -2.64386704271448669e-01
 16  3.70134539701129708e-02
 17  5.93037474344852017e-03
 18 -2.29207948334485129e-02
 19 -3.69119887182896116e-03
 20 -1.40183368499489855e-02
 21 -2.26755665104920066e-03
 Sym= A
 Ene=  1.95043907681686202e+00
 Spin= Beta
 Occup=  0.00000000000000000e+00
  1 -5.54090900571590217e-02
  2 -4.48231137856927198e-01
  3  2.19029488373872448e-02
  4 -9.32850872541823341e-03
  5 -1.48185014658505018e-02
  6  1.52913450330279455e+00
  7  3.46238290403080295e-01
  8 -1.45911128089643738e-01
  9 -2.33415735421939219e-01
 10 -4.91991318740634953e-01
 11  2.70751836878221352e-01
 12  1.38508498985930942e-02
 13  7.83948892826576316e-01
 14  1.25236004381331867e+00
 15 -5.28995312208496049e-01
 16 -4.52537966658074053e-01
 17 -2.09883811573609996e-01
 18 -4.52629919614246534e-01
 19 -2.09841058526347823e-01
 20 -4.52378278284947644e-01
 21 -2.09857575962604376e-01
 Sym= A
 Ene=  2.38444591907276138e+00
 Spin= Beta
 Occup=  0.00000000000000000e+00
  1 -2.04175700732326835e-05
  2  1.06388757349355845e-05
  3  1.20500114032765122e-02
  4 -4.67215363601324249e-02
  5  4.70473857902964851e-02
  6  2.92481462020922585e-04
  7  1.17609988313954833e-01
  8 -4.56251949557638703e-01
  9  4.59691512513745071e-01
 10  4.61058049773876044e-01
 11 -3.44275536766579571e-01
 12 -1.16855081806012395e-01
 13 -8.52921970206842461e-01
 14  1.44441785942939216e+00
 15  9.39549078882432220e-01
 16 -6.97087008931843388e-01
 17  1.33350697806001658e-02
 18  8.43517885055507621e-01
 19 -1.62241947553995701e-02
 20 -1.46784427134947049e-01
 21  2.78306638656961383e-03
 Sym= A
 Ene=  2.38468733890732665e+00
 Spin= Beta
 Occup=  0.00000000000000000e+00
  1  4.58016775804818526e-05
  2 -3.94679316918361014e-05
  3  4.02363601588148281e-02
  4  4.33212932004539766e-02
  5  3.26884859810383233e-02
  6 -5.54612076370652324e-04
  7  3.92598549133572561e-01
  8  4.21989535834372986e-01
  9  3.18354352733085655e-01
 10  4.82231689342772829e-01
 11 -5.71331847476101440e-01
 12  8.92572520372339057e-02
 13 -5.28618818822268910e-01
 14  2.33389634954960318e-01
 15 -1.70840607205125106e+00
 16 -5.71613284126587184e-01
 17  1.09766811604692944e-02