[Molden Format]
[Atoms] (AU)
N    1    7        -0.101484417824       0.042802091602       0.068436017810
H    2    1         1.386989136774      -0.428111002546       1.186385543571
H    3    1         0.546613402813       1.354670877530      -1.175145429881
H    4    1        -0.523542491817      -1.521267127815      -0.962114115933
[GTO]
  1 0
 s    6  1.00
     4173.5110000000         0.0018348000
      627.4579000000         0.0139950000
      142.9021000000         0.0685870000
       40.2343300000         0.2322410000
       12.8202100000         0.4690700000
        4.3904370000         0.3604550000
 s    3  1.00
       11.6263580000        -0.1149610000
        2.7162800000        -0.1691180000
        0.7722180000         1.1458520000
 p    3  1.00
       11.6263580000         0.0675800000
        2.7162800000         0.3239070000
        0.7722180000         0.7408950000
 s    1  1.00
        0.2120313000         1.0000000000
 p    1  1.00
        0.2120313000         1.0000000000
 d    1  1.00
        0.8000000000         1.0000000000

  2 0
 s    3  1.00
       18.7311370000         0.0334946000
        2.8253937000         0.2347269500
        0.6401217000         0.8137573300
 s    1  1.00
        0.1612778000         1.0000000000

  3 0
 s    3  1.00
       18.7311370000         0.0334946000
        2.8253937000         0.2347269500
        0.6401217000         0.8137573300
 s    1  1.00
        0.1612778000         1.0000000000

  4 0
 s    3  1.00
       18.7311370000         0.0334946000
        2.8253937000         0.2347269500
        0.6401217000         0.8137573300
 s    1  1.00
        0.1612778000         1.0000000000

[MO]
 Sym= A
 Ene= -1.43756148346139199e+01
 Spin= Alpha
 Occup=  1.00000000000000000e+00
  1  9.92714946695199107e-01
  2  3.46385682709097614e-02
  3  1.03279326035532080e-03
  4 -4.35927800504418682e-04
  5 -6.96611069249858969e-04
  6  3.58068017524841012e-03
  7 -3.25879986822047852e-04
  8  1.37503590340935208e-04
  9  2.19790145017882286e-04
 10 -8.14569561643238918e-03
 11 -8.13414880769709227e-03
 12 -8.13805798230996490e-03
 13  1.18416058339053043e-05
 14  1.89375347509339991e-05
 15 -7.86055183428613636e-06
 16  2.62210903389715219e-04
 17 -2.85777397849308753e-04
 18  2.62243932829314338e-04
 19 -2.85779270312229363e-04
 20  2.62151424109899887e-04
 21 -2.85787727862967455e-04
 Sym= A
 Ene= -9.23397277246843950e-01
 Spin= Alpha
 Occup=  1.00000000000000000e+00
  1  1.98794404423393023e-01
  2 -4.12479791466806078e-01
  3 -8.80234633194894589e-02
  4  3.71721925782486501e-02
  5  5.93727186289553094e-02
  6 -4.24155652670723804e-01
  7 -4.28909047045548525e-02
  8  1.81011682337703962e-02
  9  2.89269232025533077e-02
 10  1.49480741976969959e-03
 11 -5.36213655916699741e-03
 12 -3.05005709445467900e-03
 13 -7.04414554782443764e-03
 14 -1.12558121630569313e-02
 15  4.74337597754878864e-03
 16 -1.38987008816412433e-01
 17 -1.61806710755460770e-02
 18 -1.38969106683528465e-01
 19 -1.61800214732815209e-02
 20 -1.39011926101246908e-01
 21 -1.61807065465683561e-02
 Sym= A
 Ene= -5.19847403494522187e-01
 Spin= Alpha
 Occup=  1.00000000000000000e+00
  1 -1.35254604990303965e-06
  2 -7.02898797042467431e-07
  3  2.83413781080454563e-01
  4  3.26816603432488806e-01
  5  2.15714770616669466e-01
  6  2.40076509723669492e-05
  7  1.46209933774812895e-01
  8  1.68594379253198978e-01
  9  1.11276976314206577e-01
 10  2.54234752052929225e-02
 11 -1.83456624349766784e-02
 12 -7.07613176325348238e-03
 13  3.78608297861300668e-03
 14  4.34564267195787675e-03
 15 -5.06153225329230433e-02
 16  1.64229747245583091e-01
 17  1.14557049702877389e-01
 18  1.11011749527858500e-01
 19  7.74369085104319455e-02
 20 -2.75217726768147930e-01
 21 -1.91958684675923669e-01
 Sym= A
 Ene= -5.19800395797911263e-01
 Spin= Alpha
 Occup=  1.00000000000000000e+00
  1 -3.33343434474528586e-06
  2  5.51447428621051436e-06
  3 -1.01257365021992271e-01
  4  3.18382498272575254e-01
  5 -3.49333772418705502e-01
  6  2.11702436711104386e-05
  7 -5.22401471088845687e-02
  8  1.64266020786726114e-01
  9 -1.80236453794331647e-01
 10 -1.49174820523237731e-02
 11 -1.36459724952709706e-03
 12  1.62823720762869557e-02
 13  3.77659148955468357e-02
 14 -4.33309934272496089e-02
 15 -1.94427303318179916e-02
 16 -2.22977429397765992e-01
 17 -1.55553761270336793e-01
 18  2.53708286916134174e-01
 19  1.76999497004301426e-01
 20 -3.07205905739477494e-02
 21 -2.14283353458414871e-02
 Sym= A
 Ene= -3.17119839513919699e-01
 Spin= Alpha
 Occup=  1.00000000000000000e+00
  1 -7.33320502800126062e-02
  2  1.59241181432563744e-01
  3 -4.35504092487565442e-01
  4  1.83801071169628100e-01
  5  2.93743375479027791e-01
  6  3.23845860835892341e-01
  7 -3.69574187971952794e-01
  8  1.55972119997774411e-01
  9  2.49272279773112254e-01
 10 -2.23893668192295982e-02
 11  2.68729999141971865e-03
 12 -5.75756788607084159e-03
 13  2.57576588285579125e-02
 14  4.11607376635683905e-02
 15 -1.73727138731011380e-02
 16 -6.30469531477970135e-02
 17 -6.02437412556426632e-02
 18 -6.30498471278939376e-02
 19 -6.02505931698121000e-02
 20 -6.30513112071352938e-02
 21 -6.02394255844326404e-02
 Sym= A
 Ene=  1.30284279304377415e-01
 Spin= Alpha
 Occup=  0.00000000000000000e+00
  1 -1.29533785215168146e-01
  2  1.58056384784530712e-01
  3  1.44778267057844801e-01
  4 -6.09959572620777241e-02
  5 -9.76160877217554512e-02
  6  1.86462782800617277e+00
  7  3.69546554355605128e-01
  8 -1.55775685930635011e-01
  9 -2.49184663228462250e-01
 10 -3.53405678419348862e-02
 11 -3.67017255843182372e-02
 12 -3.62442151898167628e-02
 13 -1.38791276424058644e-03
 14 -2.22552632756619099e-03
 15  9.40920651391804141e-04
 16 -4.92565869938129744e-02
 17 -9.35566705491125306e-01
 18 -4.92772967508046805e-02
 19 -9.35659085089365350e-01
 20 -4.92322836846115428e-02
 21 -9.35430497118541648e-01
 Sym= A
 Ene=  2.22848472301132916e-01
 Spin= Alpha
 Occup=  0.00000000000000000e+00
  1  1.22839201305394772e-05
  2 -9.73442661101111688e-06
  3 -6.72330497898181306e-02
  4  2.83959125983178740e-01
  5 -2.77339566453104980e-01
  6 -2.93959568601217646e-04
  7 -1.72250496315916130e-01
  8  7.27438990788908613e-01
  9 -7.10449147186605345e-01
 10 -1.83834310342754288e-03
 11 -1.09860527427085193e-02
 12  1.28393107323474288e-02
 13  1.70666128958008312e-02
 14 -7.17625046820781400e-03
 15  1.15109966458182690e-03
 16  6.90801619700605746e-02
 17  1.26771023545508821e+00
 18 -8.55932034550557774e-02
 19 -1.57033257967972562e+00
 20  1.64980566549516559e-02
 21  3.02994934057595200e-01
 Sym= A
 Ene=  2.22877992414455356e-01
 Spin= Alpha
 Occup=  0.00000000000000000e+00
  1  2.01430487425243160e-05
  2 -1.86026342598272618e-05
  3  2.41440555948847779e-01
  4  2.52505748283088360e-01
  5  2.00001231035818516e-01
  6 -4.52702653794924696e-04
  7  6.18579642429447185e-01
  8  6.46982806174155378e-01
  9  5.12456989303838872e-01
 10  1.42903245389770749e-02
 11 -3.85645044427928478e-03
 12 -1.04105357339983034e-02
 13  1.46552760439868611e-02
 14  9.37486810266002150e-04
 15 -7.14905902188585785e-03
 16 -5.89142667670231185e-02
 17 -1.08155108943305311e+00
 18 -3.03360309372400182e-02
 19 -5.56879648005159100e-01
 20  8.92404919999215118e-02
 21  1.63899283962553399e+00
 Sym= A
 Ene=  7.48262516462034344e-01
 Spin= Alpha
 Occup=  0.00000000000000000e+00
  1 -1.57226094904468382e-06
  2 -8.93798896993293217e-06
  3 -1.16966161749845393e-01
  4  1.89385652781280750e-01
  5 -2.91773077188293928e-01
  6  1.06203303163612012e-04
  7  3.78175788592771345e-01
  8 -6.12356346403684082e-01
  9  9.43649715604484962e-01
 10 -7.15069241346325130e-02
 11  8.27269845891274030e-02
 12 -1.12098209653167594e-02
 13  1.15828936418669745e-01
 14 -1.95962722468069728e-01
 15 -7.52466545347610927e-02
 16 -6.96458141877944636e-01
 17  6.63554447810952436e-02
 18  6.32830504869221433e-01
 19 -6.04951431242965187e-02
 20  6.36611999581425114e-02
 21 -6.01562160574502930e-03
 Sym= A
 Ene=  7.48287099161453750e-01
 Spin= Alpha
 Occup=  0.00000000000000000e+00
  1  1.25900274204345089e-05
  2  3.72805875998182446e-05
  3 -1.96122100269796873e-01
  4 -2.90170380912999293e-01
  5 -1.09751464041547245e-01
  6 -3.91553698835320554e-04
  7  6.34808074464228933e-01
  8  9.38420786388017625e-01
  9  3.54797078009456701e-01
 10 -2.92128249454904100e-02
 11  5.63025280784243826e-02
 12 -2.71022892307762331e-02
 13  7.32336852133101540e-02
 14  1.62768354678824792e-02
 15  2.57844080028548750e-01
 16 -3.28536233457181803e-01
 17  3.11739951718379774e-02
 18 -4.38826016705633981e-01
 19  4.18181053565256367e-02
 20  7.67448809774235685e-01
 21 -7.25947361780561046e-02
 Sym= A
 Ene=  7.88604612234012348e-01
 Spin= Alpha
 Occup=  0.00000000000000000e+00
  1  1.90404511403971244e-02
  2 -1.68210848309336081e-01
  3  7.68264005747554934e-01
  4 -3.24073445994727927e-01
  5 -5.18123589491113812e-01
  6 -5.31433751217666311e-02
  7 -8.74501194537357307e-01
  8  3.68626027386554367e-01
  9  5.89671292917560486e-01
 10 -4.69075472824918779e-02
 11 -4.52952132267148699e-02
 12 -4.58235305490159589e-02
 13  1.65671627959428688e-03
 14  2.64765787711865796e-03
 15 -1.22300531586338481e-03
 16  4.90185919304888112e-02
 17  1.30174477823589846e-01
 18  4.91460082026451001e-02
 19  1.30173090735095254e-01
 20  4.87599933240763089e-02
 21  1.30170521350676083e-01
 Sym= A
 Ene=  9.86880060992607278e-01
 Spin= Alpha
 Occup=  0.00000000000000000e+00
  1 -2.58861448858698840e-04
  2  2.86151666672330995e-03
  3 -1.69295899248950332e-01
  4  6.95248933339734809e-01
  5 -6.87854169962892392e-01
  6 -4.15185891357229466e-03
  7  2.37428440337462382e-01
  8 -9.71097636611458981e-01
  9  9.59594654877422237e-01
 10  4.85344502776795805e-02
 11 -4.60359706158812443e-02
 12 -1.44610136476583514e-03
 13 -7.81146297670108625e-02
 14  1.50016595488108417e-01
 15  1.05965487730318206e-01
 16  4.27566209422650390e-01
 17 -1.10880391530999090e+00
 18 -5.31344932228134170e-01
 19  1.36687862633809543e+00
 20  9.54007637926102409e-02
 21 -2.51221477601555332e-01
 Sym= A
 Ene=  9.86951407031897321e-01
 Spin= Alpha
 Occup=  0.00000000000000000e+00
  1 -3.84533447322605931e-04
  2  4.28103294128199217e-03
  3  5.95247886106559765e-01
  4  6.27136342361019006e-01
  5  4.87402925405238219e-01
  6 -6.23633276059283245e-03
  7 -8.29387094392952329e-01
  8 -8.76169162749201647e-01
  9 -6.81498054306211798e-01
 10 -3.99333689384510915e-02
 11  5.95137498779624921e-02
 12 -1.80036441624628930e-02
 13  7.06816018064306828e-02
 14 -2.77948957755400801e-02
 15  1.79265759902242305e-01
 16 -3.66079320956817333e-01
 17  9.37700536161049314e-01
 18 -1.95954207280478382e-01
 19  4.98521231173198409e-01
 20  5.49558889192350741e-01
 21 -1.42597200633699939e+00
 Sym= A
 Ene=  9.94089228038199768e-01
 Spin= Alpha
 Occup=  0.00000000000000000e+00
  1  6.49835561334271422e-02
  2 -7.19266403056931680e-01
  3 -1.90137490935234327e-01
  4  8.79875634755231534e-02
  5  1.30342695987876761e-01
  6  1.04757785449088225e+00
  7 -7.21392903277844749e-03
  8 -7.69344316590325934e-03
  9  1.91044904111171889e-03
 10 -1.56353929571906330e-01
 11 -3.21992662790733589e-02
 12 -7.42459943278853812e-02
 13  1.27459088433789752e-01
 14  2.03913940064484628e-01
 15 -8.43349148572367091e-02
 16  7.00993163681957188e-01
 17 -5.72278096471760866e-01
 18  6.98136790465888613e-01
 19 -5.65049121898358653e-01
 20  7.05100565588213213e-01
 21 -5.82920009722068033e-01
 Sym= A
 Ene=  1.21219850218137548e+00
 Spin= Alpha
 Occup=  0.00000000000000000e+00
  1  8.77591640524577332e-02
  2  1.53900199893958112e+00
  3  1.10456937416462189e-01
  4 -4.65936662243765787e-02
  5 -7.44924817074088669e-02
  6 -4.09929809631495967e+00
  7 -6.39446603762795718e-01
  8  2.69865216905605498e-01
  9  4.31240233638653769e-01
 10  1.88535930115569850e-01
 11  3.64411631001478720e-01
 12  3.05160958197551235e-01
 13  1.80726023419328335e-01
 14  2.88747283575547409e-01
 15 -1.21900833134237899e-01
 16  3.51910492782196882e-01
 17  7.88861859246040686e-01
 18  3.51938493321495682e-01
 19  7.88705188453920014e-01
 20  3.51783104087441900e-01
 21  7.89112901997743976e-01
 Sym= A
 Ene=  1.74910311284243347e+00
 Spin= Alpha
 Occup=  0.00000000000000000e+00
  1  3.77741196945765756e-06
  2  2.43590928492720823e-05
  3  1.09369804432508239e-02
  4  1.45073547172436777e-02
  5  7.14098574151009365e-03
  6 -9.62081800624089777e-05
  7  2.41875718740404734e-02
  8  3.21112147431056663e-02
  9  1.58133337483225729e-02
 10 -7.12194340351979593e-01
 11  2.00387159443554147e-01
 12  5.11819212336233176e-01
 13 -1.16713010297268371e+00
 14  2.19152026092754894e-02
 15 -1.20591597014397728e-01
 16 -1.85484986513574993e-02
 17 -1.95919460830156020e-03
 18 -1.83463844539526431e-02
 19 -1.93546127093214247e-03
 20  3.69852440702105253e-02
 21  3.93185353989191407e-03
 Sym= A
 Ene=  1.74911708489112572e+00
 Spin= Alpha
 Occup=  0.00000000000000000e+00
  1  7.62927126405451769e-07
  2  4.29581420363097218e-06
  3 -5.30087346305288531e-03
  4  1.13648095896611758e-02
  5 -1.49659813608599077e-02
  6 -1.96102617795222878e-05
  7 -1.17291335398348687e-02
  8  2.51467432135230907e-02
  9 -3.31144016900603508e-02
 10  1.09466200997263688e-01
 11  7.36186018484752736e-01
 12 -8.45650025388830162e-01
 13 -5.87625494410036642e-01
 14  1.26024323792481886e-02
 15 -3.35064253322394534e-01
 16  3.19616034244769170e-02
 17  3.38391111132128669e-03
 18 -3.20715068432833733e-02
 19 -3.39034368278638525e-03
 20  1.28092577841174872e-04
 21  1.45199046450769304e-05
 Sym= A
 Ene=  2.02836409652467742e+00
 Spin= Alpha
 Occup=  0.00000000000000000e+00
  1 -5.40280315963744470e-02
  2 -4.61844832316251119e-01
  3  1.89809533918042263e-02
  4 -8.06746046879257966e-03
  5 -1.28218134474003456e-02
  6  1.53535847258398994e+00
  7  3.54608187959214505e-01
  8 -1.49561587970718335e-01
  9 -2.39120789678227863e-01
 10 -4.79145745403004086e-01
 11  2.79933211742983246e-01
 12  2.42130246630047515e-02
 13  7.79872766525745220e-01
 14  1.24606377109024624e+00
 15 -5.26041691623637786e-01
 16 -4.70297330365146316e-01
 17 -2.06613672134805249e-01
 18 -4.70334862224295713e-01
 19 -2.06569180143302750e-01
 20 -4.70225294626926471e-01
 21 -2.06655274499499997e-01
 Sym= A
 Ene=  2.48383002309683532e+00
 Spin= Alpha
 Occup=  0.00000000000000000e+00
  1  1.23245195255585521e-05
  2  9.68100210029431021e-07
  3 -1.08237141648971236e-02
  4  5.04247666795281310e-02
  5 -4.75492433559486782e-02
  6 -2.33958211815572554e-04
  7 -1.02408951702062490e-01
  8  4.77823291228142155e-01
  9 -4.50685853175033124e-01
 10 -4.39726669950150029e-01
 11  3.19571731317133900e-01
 12  1.20187751532012485e-01
 13  8.28318672329912298e-01
 14 -1.42949304534285804e+00
 15 -1.00585685749181875e+00
 16  6.86451881304738554e-01
 17 -1.87157836424359236e-02
 18 -8.72880682399295060e-01
 19  2.38614747568658969e-02
 20  1.86689223900416618e-01
 21 -5.04392558086594681e-03
 Sym= A
 Ene=  2.48395023603622800e+00
 Spin= Alpha
 Occup=  0.00000000000000000e+00
  1  1.87378467382666607e-05
  2 -1.21096766795422477e-05
  3  4.23444496393654696e-02
  4  4.29921119439909197e-02
  5  3.59563075720198549e-02
  6 -3.21026732761026199e-04
  7  4.01092374513688621e-01
  8  4.06937890206796660e-01
  9  3.40222037374520392e-01
 10  4.99294618829847159e-01
 11 -5.83290269088697411e-01
 12  8.40514750423779072e-02
 13 -5.61306930149422900e-01
 14  2.91664588218569942e-01
 15 -1.66382554147625505e+00
 16 -6.11714107230260984e-01
 17  1.66650332191220323e-02
 18 -2.88465797410771663e-01
 19  7.86037070091162755e-03
 20  9.00567254147629059e-01
 21 -2.44024278520192546e-02
 Sym= A
 Ene=  3.74372744313143224e+00
 Spin= Alpha
 Occup=  0.00000000000000000e+00
  1  4.66552320173382107e-01
  2 -1.16470111007963628e+00
  3  7.70837004193886538e-02
  4 -3.25571011028392560e-02
  5 -5.19960406837498001e-02
  6 -3.19411810988311684e+00
  7 -2.53080703795383999e-01
  8  1.06793612919180478e-01
  9  1.70678228649454977e-01
 10  1.51687373628788613e+00
 11  1.50550942621342188e+00
 12  1.50932421350838730e+00
 13 -1.16987522499335944e-02
 14 -1.86751265235417137e-02
 15  7.98533034779744938e-03
 16 -1.40481986956118549e-01
 17  5.64894648114917963e-01
 18 -1.40433151144130852e-01
 19  5.64829740631548560e-01
 20 -1.40580646430786743e-01
 21  5.65004860798957287e-01
 Sym= A
 Ene= -1.43756148346139199e+01
 Spin= Beta
 Occup=  1.00000000000000000e+00
  1  9.92714946695199107e-01
  2  3.46385682709097614e-02
  3  1.03279326035532080e-03
  4 -4.35927800504418682e-04
  5 -6.96611069249858969e-04
  6  3.58068017524841012e-03
  7 -3.25879986822047852e-04
  8  1.37503590340935208e-04
  9  2.19790145017882286e-04
 10 -8.14569561643238918e-03
 11 -8.13414880769709227e-03
 12 -8.13805798230996490e-03
 13  1.18416058339053043e-05
 14  1.89375347509339991e-05
 15 -7.86055183428613636e-06
 16  2.62210903389715219e-04
 17 -2.85777397849308753e-04
 18  2.62243932829314338e-04
 19 -2.85779270312229363e-04
 20  2.62151424109899887e-04
 21 -2.85787727862967455e-04
 Sym= A
 Ene= -9.23397277246843950e-01
 Spin= Beta
 Occup=  1.00000000000000000e+00
  1  1.98794404423393023e-01
  2 -4.12479791466806078e-01
  3 -8.80234633194894589e-02
  4  3.71721925782486501e-02
  5  5.93727186289553094e-02
  6 -4.24155652670723804e-01
  7 -4.28909047045548525e-02
  8  1.81011682337703962e-02
  9  2.89269232025533077e-02
 10  1.49480741976969959e-03
 11 -5.36213655916699741e-03
 12 -3.05005709445467900e-03
 13 -7.04414554782443764e-03
 14 -1.12558121630569313e-02
 15  4.74337597754878864e-03
 16 -1.38987008816412433e-01
 17 -1.61806710755460770e-02
 18 -1.38969106683528465e-01
 19 -1.61800214732815209e-02
 20 -1.39011926101246908e-01
 21 -1.61807065465683561e-02
 Sym= A
 Ene= -5.19847403494522187e-01
 Spin= Beta
 Occup=  1.00000000000000000e+00
  1 -1.35254604990303965e-06
  2 -7.02898797042467431e-07
  3  2.83413781080454563e-01
  4  3.26816603432488806e-01
  5  2.15714770616669466e-01
  6  2.40076509723669492e-05
  7  1.46209933774812895e-01
  8  1.68594379253198978e-01
  9  1.11276976314206577e-01
 10  2.54234752052929225e-02
 11 -1.83456624349766784e-02
 12 -7.07613176325348238e-03
 13  3.78608297861300668e-03
 14  4.34564267195787675e-03
 15 -5.06153225329230433e-02
 16  1.64229747245583091e-01
 17  1.14557049702877389e-01
 18  1.11011749527858500e-01
 19  7.74369085104319455e-02
 20 -2.75217726768147930e-01
 21 -1.91958684675923669e-01
 Sym= A
 Ene= -5.19800395797911263e-01
 Spin= Beta
 Occup=  1.00000000000000000e+00
  1 -3.33343434474528586e-06
  2  5.51447428621051436e-06
  3 -1.01257365021992271e-01
  4  3.18382498272575254e-01
  5 -3.49333772418705502e-01
  6  2.11702436711104386e-05
  7 -5.22401471088845687e-02
  8  1.64266020786726114e-01
  9 -1.80236453794331647e-01
 10 -1.49174820523237731e-02
 11 -1.36459724952709706e-03
 12  1.62823720762869557e-02
 13  3.77659148955468357e-02
 14 -4.33309934272496089e-02
 15 -1.94427303318179916e-02
 16 -2.22977429397765992e-01
 17 -1.55553761270336793e-01
 18  2.53708286916134174e-01
 19  1.76999497004301426e-01
 20 -3.07205905739477494e-02
 21 -2.14283353458414871e-02
 Sym= A
 Ene= -3.17119839513919699e-01
 Spin= Beta
 Occup=  1.00000000000000000e+00
  1 -7.33320502800126062e-02
  2  1.59241181432563744e-01
  3 -4.35504092487565442e-01
  4  1.83801071169628100e-01
  5  2.93743375479027791e-01
  6  3.23845860835892341e-01
  7 -3.69574187971952794e-01
  8  1.55972119997774411e-01
  9  2.49272279773112254e-01
 10 -2.23893668192295982e-02
 11  2.68729999141971865e-03
 12 -5.75756788607084159e-03
 13  2.57576588285579125e-02
 14  4.11607376635683905e-02
 15 -1.73727138731011380e-02
 16 -6.30469531477970135e-02
 17 -6.02437412556426632e-02
 18 -6.30498471278939376e-02
 19 -6.02505931698121000e-02
 20 -6.30513112071352938e-02
 21 -6.02394255844326404e-02
 Sym= A
 Ene=  1.30284279304377415e-01
 Spin= Beta
 Occup=  0.00000000000000000e+00
  1 -1.29533785215168146e-01
  2  1.58056384784530712e-01
  3  1.44778267057844801e-01
  4 -6.09959572620777241e-02
  5 -9.76160877217554512e-02
  6  1.86462782800617277e+00
  7  3.69546554355605128e-01
  8 -1.55775685930635011e-01
  9 -2.49184663228462250e-01
 10 -3.53405678419348862e-02
 11 -3.67017255843182372e-02
 12 -3.62442151898167628e-02
 13 -1.38791276424058644e-03
 14 -2.22552632756619099e-03
 15  9.40920651391804141e-04
 16 -4.92565869938129744e-02
 17 -9.35566705491125306e-01
 18 -4.92772967508046805e-02
 19 -9.35659085089365350e-01
 20 -4.92322836846115428e-02
 21 -9.35430497118541648e-01
 Sym= A
 Ene=  2.22848472301132916e-01
 Spin= Beta
 Occup=  0.00000000000000000e+00
  1  1.22839201305394772e-05
  2 -9.73442661101111688e-06
  3 -6.72330497898181306e-02
  4  2.83959125983178740e-01
  5 -2.77339566453104980e-01
  6 -2.93959568601217646e-04
  7 -1.72250496315916130e-01
  8  7.27438990788908613e-01
  9 -7.10449147186605345e-01
 10 -1.83834310342754288e-03
 11 -1.09860527427085193e-02
 12  1.28393107323474288e-02
 13  1.70666128958008312e-02
 14 -7.17625046820781400e-03
 15  1.15109966458182690e-03
 16  6.90801619700605746e-02
 17  1.26771023545508821e+00
 18 -8.55932034550557774e-02
 19 -1.57033257967972562e+00
 20  1.64980566549516559e-02
 21  3.02994934057595200e-01
 Sym= A
 Ene=  2.22877992414455356e-01
 Spin= Beta
 Occup=  0.00000000000000000e+00
  1  2.01430487425243160e-05
  2 -1.86026342598272618e-05
  3  2.41440555948847779e-01
  4  2.52505748283088360e-01
  5  2.00001231035818516e-01
  6 -4.52702653794924696e-04
  7  6.18579642429447185e-01
  8  6.46982806174155378e-01
  9  5.12456989303838872e-01
 10  1.42903245389770749e-02
 11 -3.85645044427928478e-03
 12 -1.04105357339983034e-02
 13  1.46552760439868611e-02
 14  9.37486810266002150e-04
 15 -7.14905902188585785e-03
 16 -5.89142667670231185e-02
 17 -1.08155108943305311e+00
 18 -3.03360309372400182e-02
 19 -5.56879648005159100e-01
 20  8.92404919999215118e-02
 21  1.63899283962553399e+00
 Sym= A
 Ene=  7.48262516462034344e-01
 Spin= Beta
 Occup=  0.00000000000000000e+00
  1 -1.57226094904468382e-06
  2 -8.93798896993293217e-06
  3 -1.16966161749845393e-01
  4  1.89385652781280750e-01
  5 -2.91773077188293928e-01
  6  1.06203303163612012e-04
  7  3.78175788592771345e-01
  8 -6.12356346403684082e-01
  9  9.43649715604484962e-01
 10 -7.15069241346325130e-02
 11  8.27269845891274030e-02
 12 -1.12098209653167594e-02
 13  1.15828936418669745e-01
 14 -1.95962722468069728e-01
 15 -7.52466545347610927e-02
 16 -6.96458141877944636e-01
 17  6.63554447810952436e-02
 18  6.32830504869221433e-01
 19 -6.04951431242965187e-02
 20  6.36611999581425114e-02
 21 -6.01562160574502930e-03
 Sym= A
 Ene=  7.48287099161453750e-01
 Spin= Beta
 Occup=  0.00000000000000000e+00
  1  1.25900274204345089e-05
  2  3.72805875998182446e-05
  3 -1.96122100269796873e-01
  4 -2.90170380912999293e-01
  5 -1.09751464041547245e-01
  6 -3.91553698835320554e-04
  7  6.34808074464228933e-01
  8  9.38420786388017625e-01
  9  3.54797078009456701e-01
 10 -2.92128249454904100e-02
 11  5.63025280784243826e-02
 12 -2.71022892307762331e-02
 13  7.32336852133101540e-02
 14  1.62768354678824792e-02
 15  2.57844080028548750e-01
 16 -3.28536233457181803e-01
 17  3.11739951718379774e-02
 18 -4.38826016705633981e-01
 19  4.18181053565256367e-02
 20  7.67448809774235685e-01
 21 -7.25947361780561046e-02
 Sym= A
 Ene=  7.88604612234012348e-01
 Spin= Beta
 Occup=  0.00000000000000000e+00
  1  1.90404511403971244e-02
  2 -1.68210848309336081e-01
  3  7.68264005747554934e-01
  4 -3.24073445994727927e-01
  5 -5.18123589491113812e-01
  6 -5.31433751217666311e-02
  7 -8.74501194537357307e-01
  8  3.68626027386554367e-01
  9  5.89671292917560486e-01
 10 -4.69075472824918779e-02
 11 -4.52952132267148699e-02
 12 -4.58235305490159589e-02
 13  1.65671627959428688e-03
 14  2.64765787711865796e-03
 15 -1.22300531586338481e-03
 16  4.90185919304888112e-02
 17  1.30174477823589846e-01
 18  4.91460082026451001e-02
 19  1.30173090735095254e-01
 20  4.87599933240763089e-02
 21  1.30170521350676083e-01
 Sym= A
 Ene=  9.86880060992607278e-01
 Spin= Beta
 Occup=  0.00000000000000000e+00
  1 -2.58861448858698840e-04
  2  2.86151666672330995e-03
  3 -1.69295899248950332e-01
  4  6.95248933339734809e-01
  5 -6.87854169962892392e-01
  6 -4.15185891357229466e-03
  7  2.37428440337462382e-01
  8 -9.71097636611458981e-01
  9  9.59594654877422237e-01
 10  4.85344502776795805e-02
 11 -4.60359706158812443e-02
 12 -1.44610136476583514e-03
 13 -7.81146297670108625e-02
 14  1.50016595488108417e-01
 15  1.05965487730318206e-01
 16  4.27566209422650390e-01
 17 -1.10880391530999090e+00
 18 -5.31344932228134170e-01
 19  1.36687862633809543e+00
 20  9.54007637926102409e-02
 21 -2.51221477601555332e-01
 Sym= A
 Ene=  9.86951407031897321e-01
 Spin= Beta
 Occup=  0.00000000000000000e+00
  1 -3.84533447322605931e-04
  2  4.28103294128199217e-03
  3  5.95247886106559765e-01
  4  6.27136342361019006e-01
  5  4.87402925405238219e-01
  6 -6.23633276059283245e-03
  7 -8.29387094392952329e-01
  8 -8.76169162749201647e-01
  9 -6.81498054306211798e-01
 10 -3.99333689384510915e-02
 11  5.95137498779624921e-02
 12 -1.80036441624628930e-02
 13  7.06816018064306828e-02
 14 -2.77948957755400801e-02
 15  1.79265759902242305e-01
 16 -3.66079320956817333e-01
 17  9.37700536161049314e-01
 18 -1.95954207280478382e-01
 19  4.98521231173198409e-01
 20  5.49558889192350741e-01
 21 -1.42597200633699939e+00
 Sym= A
 Ene=  9.94089228038199768e-01
 Spin= Beta
 Occup=  0.00000000000000000e+00
  1  6.49835561334271422e-02
  2 -7.19266403056931680e-01
  3 -1.90137490935234327e-01
  4  8.79875634755231534e-02
  5  1.30342695987876761e-01
  6  1.04757785449088225e+00
  7 -7.21392903277844749e-03
  8 -7.69344316590325934e-03
  9  1.91044904111171889e-03
 10 -1.56353929571906330e-01
 11 -3.21992662790733589e-02
 12 -7.42459943278853812e-02
 13  1.27459088433789752e-01
 14  2.03913940064484628e-01
 15 -8.43349148572367091e-02
 16  7.00993163681957188e-01
 17 -5.72278096471760866e-01
 18  6.98136790465888613e-01
 19 -5.65049121898358653e-01
 20  7.05100565588213213e-01
 21 -5.82920009722068033e-01
 Sym= A
 Ene=  1.21219850218137548e+00
 Spin= Beta
 Occup=  0.00000000000000000e+00
  1  8.77591640524577332e-02
  2  1.53900199893958112e+00
  3  1.10456937416462189e-01
  4 -4.65936662243765787e-02
  5 -7.44924817074088669e-02
  6 -4.09929809631495967e+00
  7 -6.39446603762795718e-01
  8  2.69865216905605498e-01
  9  4.31240233638653769e-01
 10  1.88535930115569850e-01
 11  3.64411631001478720e-01
 12  3.05160958197551235e-01
 13  1.80726023419328335e-01
 14  2.88747283575547409e-01
 15 -1.21900833134237899e-01
 16  3.51910492782196882e-01
 17  7.88861859246040686e-01
 18  3.51938493321495682e-01
 19  7.88705188453920014e-01
 20  3.51783104087441900e-01
 21  7.89112901997743976e-01
 Sym= A
 Ene=  1.74910311284243347e+00
 Spin= Beta
 Occup=  0.00000000000000000e+00
  1  3.77741196945765756e-06
  2  2.43590928492720823e-05
  3  1.09369804432508239e-02
  4  1.45073547172436777e-02
  5  7.14098574151009365e-03
  6 -9.62081800624089777e-05
  7  2.41875718740404734e-02
  8  3.21112147431056663e-02
  9  1.58133337483225729e-02
 10 -7.12194340351979593e-01
 11  2.00387159443554147e-01
 12  5.11819212336233176e-01
 13 -1.16713010297268371e+00
 14  2.19152026092754894e-02
 15 -1.20591597014397728e-01
 16 -1.85484986513574993e-02
 17 -1.95919460830156020e-03
 18 -1.83463844539526431e-02
 19 -1.93546127093214247e-03
 20  3.69852440702105253e-02
 21  3.93185353989191407e-03
 Sym= A
 Ene=  1.74911708489112572e+00
 Spin= Beta
 Occup=  0.00000000000000000e+00
  1  7.62927126405451769e-07
  2  4.29581420363097218e-06
  3 -5.30087346305288531e-03
  4  1.13648095896611758e-02
  5 -1.49659813608599077e-02
  6 -1.96102617795222878e-05
  7 -1.17291335398348687e-02
  8  2.51467432135230907e-02
  9 -3.31144016900603508e-02
 10  1.09466200997263688e-01
 11  7.36186018484752736e-01
 12 -8.45650025388830162e-01
 13 -5.87625494410036642e-01
 14  1.26024323792481886e-02
 15 -3.35064253322394534e-01
 16  3.19616034244769170e-02
 17  3.38391111132128669e-03
 18 -3.20715068432833733e-02
 19 -3.39034368278638525e-03
 20  1.28092577841174872e-04
 21  1.45199046450769304e-05
 Sym= A
 Ene=  2.02836409652467742e+00
 Spin= Beta
 Occup=  0.00000000000000000e+00
  1 -5.40280315963744470e-02
  2 -4.61844832316251119e-01
  3  1.89809533918042263e-02
  4 -8.06746046879257966e-03
  5 -1.28218134474003456e-02
  6  1.53535847258398994e+00
  7  3.54608187959214505e-01
  8 -1.49561587970718335e-01
  9 -2.39120789678227863e-01
 10 -4.79145745403004086e-01
 11  2.79933211742983246e-01
 12  2.42130246630047515e-02
 13  7.79872766525745220e-01
 14  1.24606377109024624e+00
 15 -5.26041691623637786e-01
 16 -4.70297330365146316e-01
 17 -2.06613672134805249e-01
 18 -4.70334862224295713e-01
 19 -2.06569180143302750e-01
 20 -4.70225294626926471e-01
 21 -2.06655274499499997e-01
 Sym= A
 Ene=  2.48383002309683532e+00
 Spin= Beta
 Occup=  0.00000000000000000e+00
  1  1.23245195255585521e-05
  2  9.68100210029431021e-07
  3 -1.08237141648971236e-02
  4  5.04247666795281310e-02
  5 -4.75492433559486782e-02
  6 -2.33958211815572554e-04
  7 -1.02408951702062490e-01
  8  4.77823291228142155e-01
  9 -4.50685853175033124e-01
 10 -4.39726669950150029e-01
 11  3.19571731317133900e-01
 12  1.20187751532012485e-01
 13  8.28318672329912298e-01
 14 -1.42949304534285804e+00
 15 -1.00585685749181875e+00
 16  6.86451881304738554e-01
 17 -1.87157836424359236e-02
 18 -8.72880682399295060e-01
 19  2.38614747568658969e-02
 20  1.86689223900416618e-01
 21 -5.04392558086594681e-03
 Sym= A
 Ene=  2.48395023603622800e+00
 Spin= Beta
 Occup=  0.00000000000000000e+00
  1  1.87378467382666607e-05
  2 -1.21096766795422477e-05
  3  4.23444496393654696e-02
  4  4.29921119439909197e-02
  5  3.59563075720198549e-02
  6 -3.21026732761026199e-04
  7  4.01092374513688621e-01
  8  4.06937890206796660e-01
  9  3.40222037374520392e-01
 10  4.99294618829847159e-01
 11 -5.83290269088697411e-01
 12  8.40514750423779072e-02
 13 -5.61306930149422900e-01
 14  2.91664588218569942e-01
 15 -1.66382554147625505e+00
 16 -6.11714107230260984e-01
 17  1.66650332191220323e-02