[Molden Format]
[Atoms] (AU)
N    1    7        -0.101484417824       0.042802091602       0.068436017810
H    2    1         1.386989136774      -0.428111002546       1.186385543571
H    3    1         0.546613402813       1.354670877530      -1.175145429881
H    4    1        -0.523542491817      -1.521267127815      -0.962114115933
[GTO]
  1 0
 s    6  1.00
    19730.8006470000         0.0002188798
     2957.8958745000         0.0016960709
      673.2213359500         0.0087954604
      190.6824949400         0.0353593826
       62.2954418980         0.1109578922
       22.6541611820         0.2498297255
 s    2  1.00
        8.9791477428         0.4062389615
        3.6863002370         0.2433821718
 s    1  1.00
        0.8466007680         1.0000000000
 s    1  1.00
        0.3364713377         1.0000000000
 s    1  1.00
        0.1364765367         1.0000000000
 p    4  1.00
       49.2003805100         0.0055552417
       11.3467905370         0.0380523797
        3.4273972411         0.1495367103
        1.1785525134         0.3494930523
 p    1  1.00
        0.4164220497         1.0000000000
 p    1  1.00
        0.1426082601         1.0000000000
 d    1  1.00
        1.6540000000         1.0000000000
 d    1  1.00
        0.4690000000         1.0000000000
 f    1  1.00
        1.0930000000         1.0000000000

  2 0
 s    3  1.00
       34.0613410000         0.0060251978
        5.1235746000         0.0450210940
        1.1646626000         0.2018972600
 s    1  1.00
        0.3272304100         1.0000000000
 s    1  1.00
        0.1030724100         1.0000000000
 p    1  1.00
        0.8000000000         1.0000000000

  3 0
 s    3  1.00
       34.0613410000         0.0060251978
        5.1235746000         0.0450210940
        1.1646626000         0.2018972600
 s    1  1.00
        0.3272304100         1.0000000000
 s    1  1.00
        0.1030724100         1.0000000000
 p    1  1.00
        0.8000000000         1.0000000000

  4 0
 s    3  1.00
       34.0613410000         0.0060251978
        5.1235746000         0.0450210940
        1.1646626000         0.2018972600
 s    1  1.00
        0.3272304100         1.0000000000
 s    1  1.00
        0.1030724100         1.0000000000
 p    1  1.00
        0.8000000000         1.0000000000

[5D]
[9G]

[MO]
 Sym= A
 Ene= -1.45713168031094931e+01
 Spin= Alpha
 Occup=  1.00000000000000000e+00
  1  4.49417150434984591e-01
  2  6.25207792740114621e-01
  3  3.79645593386049515e-02
  4 -2.65299256422219555e-02
  5  1.91236386584702836e-02
  6  1.27987391865251425e-03
  7 -5.40284772553683928e-04
  8 -8.63036948573273717e-04
  9 -8.48961198867673053e-04
 10  3.56377679905747432e-04
 11  5.71330854907166211e-04
 12  1.79537522203753776e-03
 13 -7.57865763066951350e-04
 14 -1.21077160941155965e-03
 15  5.95705678428235593e-06
 16  5.24451411031832591e-05
 17 -2.19298682154350144e-05
 18 -3.18524751073574809e-05
 19  3.28277752581743168e-05
 20  3.00726725433282762e-06
 21  2.69080937785232876e-05
 22 -1.03144768505182831e-05
 23 -1.66855739725259549e-05
 24  1.68737304111785031e-05
 25 -2.95650610383623924e-05
 26 -1.83375414139145427e-05
 27  2.51381571615374433e-06
 28  6.14825297529508453e-06
 29 -1.15236412740119140e-05
 30 -1.38515825028432407e-05
 31  2.79732811806899967e-05
 32  4.23276080629351819e-04
 33 -1.29468315056846972e-04
 34 -3.28148061239645497e-03
 35  3.59104913381319861e-04
 36 -1.09779370078626483e-04
 37  3.21214679325561086e-04
 38  4.23404446746933989e-04
 39 -1.28941586044164055e-04
 40 -3.28105758153826111e-03
 41  1.35720792738996282e-04
 42  3.63259194437819360e-04
 43 -3.05476481595643465e-04
 44  4.22531516743765369e-04
 45 -1.31625186301142849e-04
 46 -3.28149528231077908e-03
 47 -1.48546213104132292e-04
 48 -4.01313067727365747e-04
 49 -2.50039522516316154e-04
 Sym= A
 Ene= -9.85022319983791195e-01
 Spin= Alpha
 Occup=  1.00000000000000000e+00
  1 -9.45997250243453408e-02
  2 -2.10880409894006582e-01
  3  3.21362031903435819e-01
  4  3.54730702772653506e-01
  5  1.84557308982133406e-01
  6  5.84657854958571324e-02
  7 -2.46871571693169159e-02
  8 -3.94374873755454422e-02
  9  4.86883194190790847e-02
 10 -2.05474149357685112e-02
 11 -3.28383785636680997e-02
 12  1.63276178769075908e-02
 13 -6.88986711253719054e-03
 14 -1.10129747631434478e-02
 15  3.68018794954734106e-04
 16  3.20614883049859072e-03
 17 -1.34850144042124222e-03
 18 -1.95304476291747000e-03
 19  2.00573660449401966e-03
 20  5.43707902730267102e-04
 21  4.74615841288698794e-03
 22 -2.00718118746188263e-03
 23 -2.89111720856291901e-03
 24  2.97243400980600316e-03
 25 -9.97239340325545683e-05
 26  7.71466540653017205e-04
 27  4.77644010796078654e-04
 28  5.00076226696806198e-03
 29 -4.30078725677581191e-03
 30  2.25473428934828263e-04
 31  7.62108320749360613e-04
 32  8.88410181493240608e-02
 33  7.92981669938663813e-02
 34 -2.73838364753293140e-03
 35 -8.73897039060014293e-03
 36  2.57667184742973185e-03
 37 -9.07492244820051232e-03
 38  8.88280913704132397e-02
 39  7.92851862268089680e-02
 40 -2.73704292500221401e-03
 41 -2.80674822870441995e-03
 42 -9.99549957601495766e-03
 43  7.58222247294079461e-03
 44  8.88504435973149070e-02
 45  7.93005792627100164e-02
 46 -2.73953214934064644e-03
 47  4.74202269049763502e-03
 48  1.02886553386339896e-02
 49  6.08183743359609879e-03
 Sym= A
 Ene= -5.75353651147709866e-01
 Spin= Alpha
 Occup=  1.00000000000000000e+00
  1 -1.56824954722778085e-06
  2 -3.76403352183384531e-06
  3  1.34897677337409410e-05
  4 -2.12059512179215764e-05
  5  1.81309014383672606e-05
  6 -2.11331153041211417e-01
  7 -2.26109502171559146e-01
  8 -1.71850161760915499e-01
  9 -1.54430160491857815e-01
 10 -1.65222543512145464e-01
 11 -1.25569553147390184e-01
 12 -8.34280057596271801e-02
 13 -8.92659068198495831e-02
 14 -6.78467556168821234e-02
 15  8.81694393635134286e-04
 16 -1.74080395346574708e-03
 17  1.26354112767841763e-02
 18 -9.35273960801279863e-03
 19  2.04036370264383798e-03
 20  1.07815689349672998e-02
 21 -8.55336247733470942e-04
 22  6.88691906472816036e-03
 23 -1.29007686163109970e-02
 24 -8.53461817724998455e-03
 25  1.09819837100868850e-03
 26 -1.73345046821946460e-03
 27  3.43365153765456846e-04
 28 -9.31836398148150097e-04
 29 -1.12426319956541575e-03
 30  2.12667895479194463e-03
 31  8.23959955967573849e-04
 32 -1.08075697899947781e-01
 33 -1.54098789446530549e-01
 34 -4.46215822815591232e-02
 35  8.74149609404034807e-03
 36 -1.41742620361487767e-02
 37  6.18905447413965661e-03
 38 -5.93700325092623160e-02
 39 -8.46640934521349087e-02
 40 -2.45167356122101381e-02
 41 -4.20762018695220764e-03
 42 -5.25019978828677124e-04
 43 -1.45002505555314066e-02
 44  1.67447204778667341e-01
 45  2.38717983387551680e-01
 46  6.91161928636642303e-02
 47 -5.92186569089880768e-04
 48  1.89174433694049016e-02
 49  1.15176178459311454e-02
 Sym= A
 Ene= -5.75315936913388337e-01
 Spin= Alpha
 Occup=  1.00000000000000000e+00
  1  1.25296976789690162e-06
  2  3.52768105164632774e-06
  3 -8.95224851781578436e-06
  4 -5.70279441914125972e-06
  5 -1.88556471100842962e-05
  6  6.25937194664075852e-02
  7 -2.46008626534988478e-01
  8  2.46719670410341901e-01
  9  4.57474095493357949e-02
 10 -1.79793191632664134e-01
 11  1.80315306675078835e-01
 12  2.47120941594429558e-02
 13 -9.71331663260974892e-02
 14  9.74169454849216215e-02
 15 -3.89337332987587260e-03
 16  1.08184355871022240e-02
 17  6.42130796927519766e-03
 18  4.59488609079769603e-03
 19 -7.76857299548691389e-03
 20 -1.43090478336153296e-02
 21  6.56763187146714930e-03
 22  5.79806245125487818e-04
 23 -4.33950191638378131e-03
 24 -1.17048436353366682e-02
 25 -1.16662092394139664e-03
 26  2.03071882425713730e-03
 27 -1.42591075409539080e-03
 28 -7.71858244049972338e-04
 29 -4.08635453698507766e-04
 30  1.54231189460788494e-03
 31  1.00992090599623992e-03
 32  1.30934689446900204e-01
 33  1.86694553999542906e-01
 34  5.40736777651521366e-02
 35 -1.81275735825140484e-02
 36 -3.09897023874229323e-03
 37 -5.99130125316050394e-03
 38 -1.59056072627814293e-01
 39 -2.26788880701075779e-01
 40 -6.56882482599040612e-02
 41  1.32368786341879718e-02
 42  1.26109156126959984e-02
 43 -1.12784830847478239e-02
 44  2.81144532862256137e-02
 45  4.00888338464189184e-02
 46  1.16101392791968464e-02
 47  3.72592869453239632e-03
 48 -4.93833299586154961e-03
 49  1.26812578812443115e-02
 Sym= A
 Ene= -3.83124379669860071e-01
 Spin= Alpha
 Occup=  1.00000000000000000e+00
  1 -3.21479622235600893e-02
  2 -7.24467625100907592e-02
  3  1.16204210473492123e-01
  4  1.72092612079005503e-01
  5  1.59902135362193054e-01
  6 -3.19471307199186150e-01
  7  1.34832064616930314e-01
  8  2.15482824136327911e-01
  9 -2.54588725549804606e-01
 10  1.07443598186909808e-01
 11  1.71719212785189812e-01
 12 -2.75446288878574641e-01
 13  1.16249957473195359e-01
 14  1.85785470042301837e-01
 15  2.22834032281795063e-04
 16  1.93255842900201254e-03
 17 -8.15857271099238563e-04
 18 -1.17624392069622260e-03
 19  1.20594312647943924e-03
 20  2.95557089648095178e-03
 21  2.57557393985579225e-02
 22 -1.08676980242206362e-02
 23 -1.56906999502001571e-02
 24  1.61155762779713191e-02
 25  1.27506708867872122e-03
 26  5.48366569266674382e-04
 27 -2.47345406330136527e-04
 28 -1.65538919612852158e-03
 29  1.67894739586616003e-03
 30  5.24924140173919527e-04
 31 -1.37307556342238174e-03
 32 -4.18495078642014684e-02
 33 -4.97756506909169880e-02
 34 -2.17430003398959744e-02
 35 -8.58774393159743125e-03
 36  4.35968500788161753e-03
 37  1.57059655981945621e-02
 38 -4.18479465563375702e-02
 39 -4.97895530983639562e-02
 40 -2.17518734200360317e-02
 41 -1.25133850823243107e-02
 42  1.26870664452014056e-02
 43  4.67234522824894541e-03
 44 -4.18565443294385969e-02
 45 -4.97844246686681077e-02
 46 -2.17435397295120368e-02
 47 -1.75197440548026211e-02
 48 -7.47019433957857304e-04
 49  5.67018145785681913e-03
 Sym= A
 Ene=  8.76914341428288308e-02
 Spin= Alpha
 Occup=  0.00000000000000000e+00
  1 -3.51669590247118968e-02
  2 -9.01411897022811048e-02
  3  3.31074106673562241e-01
  4 -6.50568051686529980e-01
  5  2.74513959805691066e+00
  6  7.52450083504753869e-02
  7 -3.17212960285979950e-02
  8 -5.07419057746667027e-02
  9 -2.73368160750542648e-02
 10  1.15929507458452739e-02
 11  1.84434598300117526e-02
 12  3.88966368273579832e-01
 13 -1.64091607044839438e-01
 14 -2.62313253230158916e-01
 15 -3.71861178389935659e-04
 16 -3.24540917919445256e-03
 17  1.36962709939127667e-03
 18  1.97668670664941440e-03
 19 -2.03032805419009216e-03
 20 -1.62032460323353867e-03
 21 -1.41472323581610295e-02
 22  5.95414319364158482e-03
 23  8.61874842490462957e-03
 24 -8.84966947988865237e-03
 25 -2.28406391478552708e-03
 26 -2.94546786582791263e-03
 27 -6.57156243390717406e-04
 28 -8.77113473346240700e-03
 29  7.03346358288422461e-03
 30 -1.58222792370612923e-03
 31  8.82480577055482765e-04
 32 -1.48423720780080301e-02
 33  6.61578343134623104e-02
 34 -1.17757316473848506e+00
 35 -4.17588284924429176e-02
 36  1.31085149851947937e-02
 37 -3.27601775468462572e-02
 38 -1.48563099638002235e-02
 39  6.61127788593933174e-02
 40 -1.17752867712667619e+00
 41 -1.76242929595184540e-02
 42 -3.80699930433714279e-02
 43  3.50391615875765491e-02
 44 -1.48354674260778984e-02
 45  6.61990568483761116e-02
 46 -1.17762886015822166e+00
 47  1.31037153919262885e-02
 48  4.45066204942833887e-02
 49  2.89365702591104501e-02
 Sym= A
 Ene=  1.59455091816173844e-01
 Spin= Alpha
 Occup=  0.00000000000000000e+00
  1  4.97758233783352720e-07
  2  1.47742450123431692e-06
  3 -2.93899782933288594e-05
  4  1.90202445127600868e-04
  5 -3.80486881707757345e-04
  6  9.48765248661424983e-03
  7  1.93955912619188903e-01
  8 -1.07298546936690872e-01
  9 -6.17782392456497648e-03
 10 -1.26211263716470179e-01
 11  6.97376436244032949e-02
 12  4.46326768891365036e-02
 13  9.12343138920547858e-01
 14 -5.04632715175374114e-01
 15  6.91593943588619028e-04
 16  1.80605889152125171e-03
 17  2.57847626616246805e-03
 18  1.80805331780696803e-03
 19  4.85254656900157926e-04
 20 -8.36233389905404433e-03
 21  7.33662031182891056e-02
 22  8.81781837446456301e-02
 23  2.90850334127880604e-02
 24 -2.79084985412415727e-02
 25 -4.00820470750393523e-03
 26 -2.65456522723043608e-03
 27 -9.44077532770308016e-03
 28  3.97810383704830239e-03
 29  3.66598609693059635e-03
 30  8.94191898719410606e-03
 31  4.25604014488656585e-05
 32  1.07330297295349358e-02
 33 -1.93468448019822103e-01
 34  1.22203370576192860e+00
 35  4.31988821385909869e-02
 36 -7.10735938264957842e-03
 37  2.76594348289850023e-02
 38 -2.14476139074965023e-02
 39  3.86513110617735245e-01
 40 -2.44155027258510637e+00
 41 -3.77150113646877796e-02
 42 -6.72652605974689149e-02
 43  6.77442929806977290e-02
 44  1.06919442046890835e-02
 45 -1.93212808322036300e-01
 46  1.21990055894942295e+00
 47 -1.09844481270949760e-02
 48 -3.80531841833521983e-02
 49 -3.32466458776104548e-02
 Sym= A
 Ene=  1.59456301285717417e-01
 Spin= Alpha
 Occup=  0.00000000000000000e+00
  1  1.24076294451075821e-06
  2  3.59494261764706879e-06
  3 -2.82276847954144142e-05
  4  1.35614184557397623e-04
  5 -2.95617799529943200e-04
  6  1.37794411628311686e-01
  7  7.89399947568046462e-02
  8  1.54906397939006207e-01
  9 -8.97102716700438063e-02
 10 -5.14630453920616529e-02
 11 -1.00856696347662173e-01
 12  6.48205359927039426e-01
 13  3.71419787506801380e-01
 14  7.28703167152997100e-01
 15 -1.98670179356796265e-03
 16 -1.06698394558106904e-03
 17  1.75214618183944498e-03
 18 -1.22874187669159496e-03
 19  2.05408817698214327e-03
 20 -1.46173136782530473e-02
 21 -4.21864187278231176e-02
 22  7.30422182554951588e-02
 23 -7.01990101915703074e-02
 24  5.10272981387107569e-02
 25  1.04431549825306311e-02
 26 -3.68792578434810371e-03
 27 -2.39662991382984551e-03
 28  9.57095043723512479e-04
 29  1.60833973114260075e-03
 30 -7.47549278124381755e-05
 31  9.46634401021555216e-03
 32 -1.85474937186082475e-02
 33  3.34739609010893946e-01
 34 -2.11396402550387119e+00
 35 -6.95442147113133763e-02
 36  2.62411982840869140e-02
 37 -4.88879185530086274e-02
 38 -6.84181356686777568e-06
 39  2.32492645371532117e-04
 40 -1.28721296486744986e-03
 41  4.61540572965605470e-03
 42  2.61340668390969404e-03
 43  5.24921612555663466e-03
 44  1.85372701356709239e-02
 45 -3.35070391502220899e-01
 46  2.11554348273011739e+00
 47 -1.49634444331543364e-02
 48 -7.46562451364046753e-02
 49 -4.61771465420383193e-02
 Sym= A
 Ene=  3.84529703938498446e-01
 Spin= Alpha
 Occup=  0.00000000000000000e+00
  1  2.69572738770271188e-06
  2  5.04804730395737334e-06
  3 -7.51803531926205650e-06
  4  2.08858806268783656e-05
  5  2.71814013181928202e-04
  6  8.40205648070229370e-03
  7 -2.27780303709609402e-02
  8  2.67301922636909509e-02
  9  8.96846242669323973e-02
 10 -2.42865728569141182e-01
 11  2.84917661364480268e-01
 12  3.70198383237320183e-01
 13 -1.00243147259656729e+00
 14  1.17598405270040973e+00
 15  4.71884261069420354e-03
 16 -2.65483485590486470e-02
 17 -1.38177894043483088e-02
 18 -1.57069625441165171e-02
 19  1.69520573085426667e-02
 20 -5.06586753631355705e-02
 21  1.77216669198248022e-01
 22  8.74290364405208159e-02
 23  9.53053262758154912e-02
 24 -1.22135742501229799e-01
 25 -1.68396426881119998e-02
 26  3.91577534051452437e-03
 27 -1.60605851496030579e-02
 28  3.71732063436838126e-03
 29  3.67454036873364693e-03
 30  1.68415468334057565e-02
 31 -4.71398751971080759e-03
 32 -9.44042727419600464e-02
 33 -1.35900738151515466e+00
 34 -7.83246819327952995e-03
 35  8.27251540271543434e-02
 36 -3.66523585746620917e-02
 37  7.90237104674427204e-02
 38  1.02466204670786251e-01
 39  1.47508846785654391e+00
 40  8.26854568170754846e-03
 41 -2.98653126230331370e-02
 42 -9.28916329378726147e-02
 43  8.60771649128721644e-02
 44 -8.06584208774130569e-03
 45 -1.16119484116142660e-01
 46 -7.02985809145584132e-04
 47  2.22507885926148284e-03
 48 -1.96144144404211962e-02
 49  9.88514074065117467e-03
 Sym= A
 Ene=  3.84553556905485150e-01
 Spin= Alpha
 Occup=  0.00000000000000000e+00
  1  1.82074327736276194e-06
  2  1.93531141554045226e-06
  3 -1.79035917488085515e-05
  4  1.63387312168141867e-04
  5  4.55497792589893693e-04
  6 -2.08524357093385210e-02
  7 -2.53335356404216505e-02
  8 -1.50277594996530584e-02
  9 -2.22377210903192152e-01
 10 -2.70447920016607668e-01
 11 -1.60543400728411639e-01
 12 -9.17702663284983733e-01
 13 -1.11608169158968540e+00
 14 -6.62553842650120184e-01
 15  2.21400504045406003e-03
 16  1.78473400202854840e-03
 17 -3.24098224512542124e-02
 18  1.85255086982401979e-02
 19 -7.07381593354938863e-03
 20 -1.29994683255008569e-03
 21 -1.15952359902330403e-02
 22  2.14857411823510897e-01
 23 -1.35485386383911360e-01
 24  3.18042592824696810e-02
 25  1.52764729195470697e-02
 26 -1.12380668726489649e-02
 27 -1.01353511596254751e-02
 28  2.00931425537051803e-03
 29  2.38548379386458072e-03
 30  1.19148498749298906e-02
 31  1.66298852991770447e-02
 32  6.38127781725542770e-02
 33  9.18752856062564405e-01
 34  5.51819512364522865e-03
 35 -6.41519878426571599e-02
 36  2.65989136189680826e-03
 37 -5.17955448826432907e-02
 38  4.98402947823185435e-02
 39  7.17592554795155602e-01
 40  4.20516051269080333e-03
 41 -2.80588103914163021e-02
 42 -5.29448105214491982e-02
 43  2.66514445625262719e-02
 44 -1.13693512457985438e-01
 45 -1.63665697916180175e+00
 46 -1.00689933383258257e-02
 47 -4.43418360279984811e-02
 48 -1.15796800776676895e-01
 49 -7.34468669260433804e-02
 Sym= A
 Ene=  4.56656825803115674e-01
 Spin= Alpha
 Occup=  0.00000000000000000e+00
  1 -3.02656442200109413e-02
  2 -6.21038190588438302e-02
  3 -5.24600082189445038e-02
  4  9.16484767145860024e-01
  5  9.19479549986271217e-04
  6 -2.15890219437563119e-01
  7  9.11282092355165246e-02
  8  1.45613703462781935e-01
  9 -4.31089196660895069e-01
 10  1.81931408982465903e-01
 11  2.90758906078110280e-01
 12  1.07539956540747372e+00
 13 -4.53824618900808163e-01
 14 -7.25227757934738149e-01
 15  1.81221973527150487e-04
 16  1.56111625969098528e-03
 17 -6.55841333533559168e-04
 18 -9.52479241666458112e-04
 19  9.73242512985912351e-04
 20  2.22255168184164794e-03
 21  1.94507716930261733e-02
 22 -8.19112714245246419e-03
 23 -1.18378408649888155e-02
 24  1.21756303999515907e-02
 25  2.67588279474438324e-03
 26  3.62903736510745067e-03
 27  8.71366375227197124e-04
 28  1.13412496975189778e-02
 29 -9.15280178676229975e-03
 30  1.91012700734798546e-03
 31 -8.90655348364091442e-04
 32 -1.41423068367427240e-02
 33 -4.89185840088018409e-01
 34  2.92407156573019772e-02
 35  2.72542527469544771e-02
 36 -8.28562508041071934e-03
 37  2.50256349900452382e-02
 38 -1.41397302254307085e-02
 39 -4.89169168358597140e-01
 40  2.93692781833835986e-02
 41  1.00563389863383337e-02
 42  2.81761593723522004e-02
 43 -2.32811131275928035e-02
 44 -1.41426022807753706e-02
 45 -4.89119110977473348e-01
 46  2.92412239974818508e-02
 47 -1.18310502918153593e-02
 48 -3.06509178771283627e-02
 49 -1.89316342068857717e-02
 Sym= A
 Ene=  5.12912468058544846e-01
 Spin= Alpha
 Occup=  0.00000000000000000e+00
  1  6.74265236864997342e-02
  2  1.38089858169230389e-01
  3  1.78162982324034103e-01
  4 -2.91061532674401491e+00
  5  4.23998900910543863e+00
  6 -1.46742536815822389e-01
  7  6.18558728490600021e-02
  8  9.89779299039817984e-02
  9 -4.64542981908523722e-01
 10  1.96007729963547900e-01
 11  3.13377982946851708e-01
 12  6.45806271745186344e-01
 13 -2.72058733100429995e-01
 14 -4.35604514159373291e-01
 15  2.43978406662256171e-04
 16  2.13154991937802287e-03
 17 -9.05840436356664005e-04
 18 -1.29681447479677576e-03
 19  1.33022441481104540e-03
 20 -2.23089235786304253e-03
 21 -1.95549592377027466e-02
 22  8.17514060598375711e-03
 23  1.19257891266670701e-02
 24 -1.22302961653008857e-02
 25 -4.86765665109842403e-03
 26 -7.54346612532101005e-03
 27 -2.10951144528461398e-03
 28 -2.62931983988527393e-02
 29  2.14914888859164439e-02
 30 -3.78619817934214634e-03
 31  8.48566204657658801e-04
 32  6.85758218583683299e-02
 33  6.19937138593582127e-01
 34 -1.21103359889504625e+00
 35 -4.82856414976808937e-02
 36  1.61333216052967805e-02
 37 -2.47472894395851899e-02
 38  6.85794541165090643e-02
 39  6.19856562894099850e-01
 40 -1.21139961860532885e+00
 41 -2.55770728599409164e-02
 42 -3.20020759914899436e-02
 43  3.90208499810478851e-02
 44  6.86129886611590301e-02
 45  6.20151664060135444e-01
 46 -1.21103352805132691e+00
 47  3.32657712164674503e-03
 48  4.57141477065833857e-02
 49  3.33247088267110345e-02
 Sym= A
 Ene=  5.88169091211989903e-01
 Spin= Alpha
 Occup=  0.00000000000000000e+00
  1 -8.54424786172969068e-03
  2 -1.02555126700589125e-02
  3 -5.87944352954887298e-02
  4  9.93774922096428925e-01
  5 -5.15213172470251823e+00
  6 -5.26485422957767499e-02
  7  2.16759046249545180e-02
  8  3.55425744109112499e-02
  9 -2.65546647598192631e-01
 10  1.10654379918615237e-01
 11  1.79236264689682012e-01
 12 -7.78692444215195234e-01
 13  3.31342895491411327e-01
 14  5.24868526981065564e-01
 15  1.21122368830768492e-03
 16  1.05855106288595350e-02
 17 -4.46827433430081918e-03
 18 -6.45144293683427589e-03
 19  6.61639092900235398e-03
 20  4.55702577562944536e-03
 21  3.96815689439334041e-02
 22 -1.67848644387332338e-02
 23 -2.41772555348037411e-02
 24  2.48168032049403756e-02
 25 -6.21707508191083214e-03
 26 -7.05493487908821423e-03
 27 -1.25477418660353401e-03
 28 -1.81389408352915921e-02
 29  1.42315338515612826e-02
 30 -3.97842148474953153e-03
 31  3.16962427090242919e-03
 32  3.67735742733366344e-02
 33  1.36021276828567106e+00
 34  6.47649620707074658e-01
 35 -5.74827466612536433e-02
 36  2.05517203824184883e-02
 37 -1.10588030671600560e-02
 38  3.68937906126726722e-02
 39  1.36123975391970475e+00
 40  6.44206692764920041e-01
 41 -3.77354364117735291e-02
 42 -2.13064667403817798e-02
 43  4.44043795086470836e-02
 44  3.67354504694467898e-02
 45  1.35967889765429439e+00
 46  6.49374985634759150e-01
 47 -1.26254341390760159e-02
 48  4.62375428715192938e-02
 49  3.94225020116007394e-02
 Sym= A
 Ene=  5.94766424945371797e-01
 Spin= Alpha
 Occup=  0.00000000000000000e+00
  1 -1.71335026515291071e-06
  2 -1.04600284328289315e-05
  3 -1.78976946822111800e-07
  4 -4.31748671053874551e-04
  5  4.79579655422761320e-03
  6  6.69068531784892673e-02
  7 -2.60287682533002995e-01
  8  2.61896736393729956e-01
  9  1.95702596025981224e-01
 10 -7.60752006260270730e-01
 11  7.65272425460332473e-01
 12 -3.42674997535017789e-01
 13  1.33707637447687366e+00
 14 -1.34656174106737581e+00
 15 -5.26450555578206279e-03
 16  9.52532257056685691e-04
 17 -7.86743732435392080e-04
 18 -2.50863512264592808e-03
 19 -3.56174162035494601e-03
 20 -1.15082372613511397e-02
 21  1.79827643764849873e-02
 22  9.25576976784403017e-03
 23  4.71610411519240123e-03
 24 -1.58822758635376350e-02
 25 -6.39250785030475582e-03
 26  3.47102924964157091e-03
 27 -7.23205686591135797e-03
 28  3.19562016318453547e-04
 29  7.19272684022810691e-04
 30  7.68373063214707660e-03
 31  2.42863560598534887e-04
 32 -6.04059046673953645e-02
 33 -6.01904576476111619e-01
 34  1.61021981792810709e+00
 35  1.20010480090464878e-02
 36 -1.52172672015543024e-02
 37  1.65956857984229898e-02
 38  7.30641500885995387e-02
 39  7.25627205742993553e-01
 40 -1.95190788722026243e+00
 41 -2.55823122966918623e-03
 42 -1.89737178372427380e-02
 43  2.08062658469322197e-02
 44 -1.28213659632138693e-02
 45 -1.28572575010955092e-01
 46  3.40209727833272912e-01
 47  3.07574448105417007e-03
 48 -1.40447971028327054e-02
 49  1.09899695713870683e-02
 Sym= A
 Ene=  5.94790913138296462e-01
 Spin= Alpha
 Occup=  0.00000000000000000e+00
  1 -1.57769319361734358e-06
  2 -1.08811535647175773e-05
  3 -1.73706918561514369e-06
  4 -2.58291108683689338e-04
  5  3.83912082955024068e-03
  6 -2.23821651565341978e-01
  7 -2.40288881981238517e-01
  8 -1.81634153802166881e-01
  9 -6.54082695366385858e-01
 10 -7.02440787765420738e-01
 11 -5.31022601809357009e-01
 12  1.15100632474346942e+00
 13  1.23430939434554210e+00
 14  9.32668813964354193e-01
 15  4.27565561462501208e-03
 16 -7.42145595128925107e-05
 17  8.20925991244154702e-04
 18 -3.81221630753139076e-03
 19 -3.84249706644603775e-03
 20  5.72552183740042929e-03
 21 -2.80526483489106472e-03
 22  2.08074912534775662e-02
 23 -1.86191316020206735e-02
 24 -7.20689154514078775e-04
 25  6.78970045744807169e-03
 26 -5.87749218595603681e-03
 27 -2.34524535533678965e-03
 28 -6.03470173432597325e-04
 29 -7.72563615481057053e-04
 30  5.98816887017122185e-03
 31  6.51293506485642673e-03
 32  4.95501742932277223e-02
 33  4.92090481730571960e-01
 34 -1.32387737366561065e+00
 35 -1.76903939620157921e-02
 36 -8.89232730460533076e-03
 37 -1.20321065676290018e-02
 38  2.74422041271782241e-02
 39  2.72026311157582745e-01
 40 -7.33664899078630639e-01
 41 -1.26495279130189788e-02
 42 -1.38195302781010457e-02
 43 -5.37039380786069089e-03
 44 -7.71285496475534876e-02
 45 -7.68180721693256130e-01
 46  2.05638928556386968e+00
 47 -1.10320838985398500e-02
 48 -2.18828824971477598e-02
 49 -1.63477442190077121e-02
 Sym= A
 Ene=  9.97829573515949586e-01
 Spin= Alpha
 Occup=  0.00000000000000000e+00
  1  3.93503744275824420e-07
  2  1.47229115569140893e-06
  3  3.69501757550978943e-06
  4 -3.29045259568943655e-05
  5 -2.59540539950906630e-04
  6  2.85618414565080164e-02
  7  3.29755169421871372e-02
  8  2.17233662455723793e-02
  9  4.62904694129737948e-02
 10  5.34616493019481678e-02
 11  3.52605606973200869e-02
 12  9.65449108448887400e-02
 13  1.11454426354801711e-01
 14  7.34925415370489554e-02
 15 -6.87587665053049184e-03
 16  3.69524990635634526e-05
 17 -1.41209757159915686e-03
 18  6.85583160049227022e-03
 19  6.92055940361478283e-03
 20  4.68113581527875910e-01
 21  1.26880889160027790e-02
 22 -7.71630063966764201e-02
 23 -3.53069236852586843e-01
 24 -5.01865576538649938e-01
 25 -5.34829464785628594e-03
 26  3.83568453575265384e-03
 27  3.15749005378503653e-03
 28 -5.98640929864208094e-04
 29 -7.19938141806970616e-04
 30 -3.80158814166870309e-03
 31 -5.62850830516643981e-03
 32  1.03104537091807964e-02
 33 -1.25032630673780037e-01
 34 -2.68835572436884086e-03
 35 -9.08591632243454239e-02
 36 -1.02686374670790573e-01
 37  9.32759605214604492e-02
 38  7.01061684718126080e-03
 39 -8.46308817688000425e-02
 40 -1.79349548252488548e-03
 41 -1.39201174719864929e-01
 42 -7.97206476976459501e-03
 43 -9.04037212398056400e-02
 44 -1.73176177144985892e-02
 45  2.10003341875614508e-01
 46  4.55963988013360910e-03
 47  1.50957663105856510e-01
 48  1.94120880003164700e-02
 49 -6.29647689591009835e-02
 Sym= A
 Ene=  9.97847498045928649e-01
 Spin= Alpha
 Occup=  0.00000000000000000e+00
  1  4.01347267098164411e-07
  2  7.07420254811212863e-07
  3  4.26786786449273573e-06
  4 -4.26521880817211748e-05
  5 -3.71421207675119977e-06
  6 -1.02355583404495527e-02
  7  3.20944068089090220e-02
  8 -3.52505424554624275e-02
  9 -1.66048392017561011e-02
 10  5.20196513694124452e-02
 11 -5.71365724845818504e-02
 12 -3.45776019859573985e-02
 13  1.08383671712804483e-01
 14 -1.19092991662489170e-01
 15  9.48348129412096043e-03
 16 -1.74203606128482138e-03
 17  1.39712515241237887e-03
 18  3.93361648192994563e-03
 19  5.81917461257986084e-03
 20 -6.04639133325948985e-01
 21 -2.61614884730876109e-02
 22 -1.73908281687106980e-01
 23 -3.41845567763833347e-01
 24 -2.97389093419250405e-01
 25  5.45042629125192576e-03
 26 -1.20342309952262225e-03
 27  5.53054883867975210e-03
 28 -1.24675679074231637e-03
 29 -1.24834067476232015e-03
 30 -5.80848483861596404e-03
 31  1.33660365195029714e-03
 32 -1.40380346752859188e-02
 33  1.70185123900260499e-01
 34  3.62369887288495514e-03
 35  2.58356968322417981e-02
 36 -1.23003909825398938e-01
 37 -1.07358712113147153e-01
 38  1.59582272421509921e-02
 39 -1.93398781639463530e-01
 40 -4.11814592606842434e-03
 41 -6.00353879844910329e-02
 42  1.29125358912146604e-01
 43  8.33334528264264851e-02
 44 -1.93050554491008353e-03
 45  2.32838782255755175e-02
 46  4.84186701957322891e-04
 47  6.24932726779931988e-02
 48 -9.48920602695589865e-02
 49  1.21561848737640768e-01
 Sym= A
 Ene=  1.23245947813790435e+00
 Spin= Alpha
 Occup=  0.00000000000000000e+00
  1  5.01181523622445252e-03
  2  1.56310320677971876e-02
  3 -2.01856006327516907e-01
  4  2.48397723217906707e-01
  5  2.84220563793698666e+00
  6  1.01885961652637594e-01
  7 -4.30038574191121056e-02
  8 -6.87281489397889023e-02
  9  1.96662536201782784e-01
 10 -8.32070770820006189e-02
 11 -1.32663769762606576e-01
 12  6.86082299030271736e-01
 13 -2.89550065487411801e-01
 14 -4.62687492978375525e-01
 15 -1.31978898036659836e-03
 16 -1.14744471529555653e-02
 17  4.84882248689006302e-03
 18  6.99018427234540836e-03
 19 -7.17900917428331096e-03
 20  8.71244688199916129e-02
 21  7.59358712881670672e-01
 22 -3.20332448787882529e-01
 23 -4.62599749202047217e-01
 24  4.75162479580569286e-01
 25 -4.52135542538414058e-03
 26  2.66292963312414910e-03
 27  3.46643469259793344e-03
 28  3.34146340222305840e-02
 29 -2.95387361023070755e-02
 30 -3.42590733529406796e-04
 31  8.55966893378309196e-03
 32  1.08112690942524809e-02
 33 -1.18141950655753925e+00
 34 -3.08675017121373463e-01
 35  5.58426247270780215e-03
 36  8.48431202199676111e-03
 37  1.42176041884686855e-01
 38  1.08223310397495814e-02
 39 -1.18115988920175896e+00
 40 -3.08634104916691576e-01
 41 -5.22422137700435940e-02
 42  1.31042363721533828e-01
 43 -2.01856178527859975e-02
 44  1.08116048139848177e-02
 45 -1.18165383382887557e+00
 46 -3.08707586914256371e-01
 47 -1.25861554141667553e-01
 48 -6.67750913561996895e-02
 49 -5.62121666655173661e-03
 Sym= A
 Ene=  1.32643487914953018e+00
 Spin= Alpha
 Occup=  0.00000000000000000e+00
  1 -1.83662481448036523e-06
  2 -1.96698773213332250e-06
  3  1.20329954962641847e-04
  4 -8.50695241520479451e-04
  5 -1.27100727738235260e-04
  6 -1.24800421432623831e-02
  7 -1.24381655195358251e-02
  8 -1.07389839632264748e-02
  9  7.49966108767406880e-01
 10  7.47264880367953022e-01
 11  6.44775238279558183e-01
 12  6.28521944935274246e-01
 13  6.26154326136938999e-01
 14  5.40196517639312757e-01
 15  1.43561842028595431e-03
 16 -6.46407317156720801e-04
 17  3.49384440726544605e-03