[Molden Format]
[Atoms] (AU)
N    1    7        -0.101484417824       0.042802091602       0.068436017810
H    2    1         1.386989136774      -0.428111002546       1.186385543571
H    3    1         0.546613402813       1.354670877530      -1.175145429881
H    4    1        -0.523542491817      -1.521267127815      -0.962114115933
[GTO]
  1 0
 s    6  1.00
    19730.8006470000         0.0002188798
     2957.8958745000         0.0016960709
      673.2213359500         0.0087954604
      190.6824949400         0.0353593826
       62.2954418980         0.1109578922
       22.6541611820         0.2498297255
 s    2  1.00
        8.9791477428         0.4062389615
        3.6863002370         0.2433821718
 s    1  1.00
        0.8466007680         1.0000000000
 s    1  1.00
        0.3364713377         1.0000000000
 s    1  1.00
        0.1364765367         1.0000000000
 p    4  1.00
       49.2003805100         0.0055552417
       11.3467905370         0.0380523797
        3.4273972411         0.1495367103
        1.1785525134         0.3494930523
 p    1  1.00
        0.4164220497         1.0000000000
 p    1  1.00
        0.1426082601         1.0000000000
 d    1  1.00
        1.6540000000         1.0000000000
 d    1  1.00
        0.4690000000         1.0000000000
 f    1  1.00
        1.0930000000         1.0000000000

  2 0
 s    3  1.00
       34.0613410000         0.0060251978
        5.1235746000         0.0450210940
        1.1646626000         0.2018972600
 s    1  1.00
        0.3272304100         1.0000000000
 s    1  1.00
        0.1030724100         1.0000000000
 p    1  1.00
        0.8000000000         1.0000000000

  3 0
 s    3  1.00
       34.0613410000         0.0060251978
        5.1235746000         0.0450210940
        1.1646626000         0.2018972600
 s    1  1.00
        0.3272304100         1.0000000000
 s    1  1.00
        0.1030724100         1.0000000000
 p    1  1.00
        0.8000000000         1.0000000000

  4 0
 s    3  1.00
       34.0613410000         0.0060251978
        5.1235746000         0.0450210940
        1.1646626000         0.2018972600
 s    1  1.00
        0.3272304100         1.0000000000
 s    1  1.00
        0.1030724100         1.0000000000
 p    1  1.00
        0.8000000000         1.0000000000

[5D]
[9G]

[MO]
 Sym= A
 Ene= -1.39568166841615806e+01
 Spin= Alpha
 Occup=  1.00000000000000000e+00
  1  4.48479677855461834e-01
  2  6.26183723294407080e-01
  3  3.68756980996040803e-02
  4 -2.37982046501157285e-02
  5  1.67337082182254480e-02
  6  1.38351770499502537e-03
  7 -5.83871207137985821e-04
  8 -9.33136982031569336e-04
  9 -8.21048594210782579e-04
 10  3.44636290060514234e-04
 11  5.53247144763840655e-04
 12  1.64694447226709957e-03
 13 -6.95073070519753927e-04
 14 -1.11076039503896153e-03
 15  1.58651425799894559e-05
 16  1.38552775991252142e-04
 17 -5.82951699286139149e-05
 18 -8.44246510023286537e-05
 19  8.67032873905184331e-05
 20  1.00414464811417421e-05
 21  8.86035529689364605e-05
 22 -3.64572415410927233e-05
 23 -5.40140180967713703e-05
 24  5.52760036960132871e-05
 25  1.68387484869802239e-05
 26  2.67868569559738854e-05
 27  7.62391637762614579e-06
 28  9.55446012869818126e-05
 29 -7.82281798986421227e-05
 30  1.34448955843191517e-05
 31 -2.22727063219160439e-06
 32  1.84685875350934503e-04
 33 -2.86848275292031930e-04
 34 -2.85996039933456578e-03
 35  4.48670035857337958e-04
 36 -1.40773572254820315e-04
 37  3.52200495827637353e-04
 38  1.85006871401161010e-04
 39 -2.85855657120934875e-04
 40 -2.85991126089251693e-03
 41  1.89097651428743463e-04
 42  4.08896797324292700e-04
 43 -3.76088639968833035e-04
 44  1.84176984105487537e-04
 45 -2.88258687126905779e-04
 46 -2.86012525312487201e-03
 47 -1.41176199397873990e-04
 48 -4.79034969740509825e-04
 49 -3.11405187527593664e-04
 Sym= A
 Ene= -7.74009953444888321e-01
 Spin= Alpha
 Occup=  1.00000000000000000e+00
  1 -9.52840638247271082e-02
  2 -2.13013441866542808e-01
  3  3.21922375483768342e-01
  4  3.85247725239537153e-01
  5  1.13017544444925067e-01
  6  6.22933549644359361e-02
  7 -2.63076372631576919e-02
  8 -4.20178012445481044e-02
  9  5.05275984074085027e-02
 10 -2.13244992146476783e-02
 11 -3.40775414910527846e-02
 12  1.11992135950312790e-02
 13 -4.72680121577825126e-03
 14 -7.55306197696614667e-03
 15  2.82082612256916512e-04
 16  2.46216382536292890e-03
 17 -1.03671475166743033e-03
 18 -1.50026146934130163e-03
 19  1.54059918060195800e-03
 20  3.11469053781096583e-04
 21  2.71933856981900271e-03
 22 -1.15025310916061908e-03
 23 -1.65558598355839727e-03
 24  1.70304448817019450e-03
 25  1.03073356693954830e-04
 26  6.79095988729518942e-04
 27  3.36617554316119745e-04
 28  3.66038180236576962e-03
 29 -3.11164446288985080e-03
 30  2.49886095693487421e-04
 31  3.98346215105403159e-04
 32  9.11094027481067353e-02
 33  8.13997331696815762e-02
 34  9.52028087813518338e-03
 35 -1.09442384170577098e-02
 36  3.23871200267823126e-03
 37 -1.12325138504066648e-02
 38  9.10960452356542605e-02
 39  8.13870459348427222e-02
 40  9.52031599775852826e-03
 41 -3.57099000560765541e-03
 42 -1.23972863487844080e-02
 43  9.48082604622834703e-03
 44  9.11288265862734426e-02
 45  8.14156701653216269e-02
 46  9.52066683630743357e-03
 47  5.81734938945491827e-03
 48  1.28331226004817500e-02
 49  7.61818698173340105e-03
 Sym= A
 Ene= -4.10503893661623542e-01
 Spin= Alpha
 Occup=  1.00000000000000000e+00
  1 -2.98354669344246754e-07
  2 -6.17912256673863874e-07
  3 -3.14861103962036623e-06
  4  2.18566886308297094e-05
  5  3.41792252706624010e-06
  6  2.04847301535140053e-01
  7  2.38316084515309057e-01
  8  1.54598822050414475e-01
  9  1.54064437617616595e-01
 10  1.79230120685389377e-01
 11  1.16265083163499996e-01
 12  7.52829390026935469e-02
 13  8.75808589905256729e-02
 14  5.68137411309208376e-02
 15 -5.74691755970034622e-04
 16  8.98953979558361261e-04
 17 -1.09223849681833688e-02
 18  7.63266100071590802e-03
 19 -1.26644123788715039e-03
 20 -8.47851901585592455e-03
 21  7.51690636255359875e-04
 22 -1.03657211612342946e-02
 23  1.41792958970754623e-02
 24  7.17192824411204063e-03
 25 -4.76249599669981085e-04
 26  1.01924089535573165e-03
 27 -3.92588243626598580e-04
 28  7.99060546296242384e-04
 29  9.39651796894115481e-04
 30 -1.49732555973031319e-03
 31 -3.48889727178595781e-04
 32  1.02797305499983740e-01
 33  1.34716987256024490e-01
 34  5.80537881664472122e-02
 35 -6.80399637898404692e-03
 36  1.47554257237178261e-02
 37 -5.61342581288700772e-03
 38  7.11873857644122754e-02
 39  9.32922717581056438e-02
 40  4.02052634710740736e-02
 41  4.06240379723071376e-03
 42  2.34527347438213778e-04
 43  1.53677197822272901e-02
 44 -1.73973855032173191e-01
 45 -2.27981777655883511e-01
 46 -9.82360581806995259e-02
 47  3.65871913451098596e-04
 48 -1.77549393619804430e-02
 49 -1.15491502201976459e-02
 Sym= A
 Ene= -4.10462504751637980e-01
 Spin= Alpha
 Occup=  1.00000000000000000e+00
  1  1.50328055869684454e-06
  2  3.40220608840345351e-06
  3 -3.82521072043253076e-06
  4 -1.68507189350755817e-05
  5 -4.06965386825981224e-06
  6  7.47284485775730756e-02
  7 -2.29091102006285574e-01
  8  2.54135164395130064e-01
  9  5.62045357881977500e-02
 10 -1.72307779033664399e-01
 11  1.91146400392293581e-01
 12  2.74678911005207388e-02
 13 -8.42049249652838255e-02
 14  9.34106041038078039e-02
 15 -3.36112587059269252e-03
 16  9.16252327238118239e-03
 17  4.71498024543229310e-03
 18  4.31286556932808200e-03
 19 -6.64644929608505103e-03
 20 -1.38804857550242303e-02
 21  9.36516252891950521e-03
 22  2.11240675720553552e-03
 23 -1.13170283251408680e-03
 24 -1.20989342248157047e-02
 25 -6.27931225749762717e-04
 26  1.58921617764800683e-03
 27 -7.91438407725175556e-04
 28 -6.33285656857499090e-04
 29 -3.38496972266077523e-04
 30  7.45532920236646464e-04
 31  8.29456876881284281e-04
 32  1.41531985551642370e-01
 33  1.85479991700459368e-01
 34  7.99442634471614483e-02
 35 -1.80127566733040562e-02
 36 -2.92594865075384821e-03
 37 -6.00374321868847247e-03
 38 -1.59782195016133610e-01
 39 -2.09406496353443772e-01
 40 -9.02602548133018684e-02
 41  1.31734221665889360e-02
 42  1.22261611461401271e-02
 43 -9.42198176275475113e-03
 44  1.82462335834068130e-02
 45  2.39111380407331098e-02
 46  1.03040054211946484e-02
 47  3.97487291848596172e-03
 48 -6.65139261862282560e-03
 49  1.24883404779821718e-02
 Sym= A
 Ene= -2.19994972630994823e-01
 Spin= Alpha
 Occup=  1.00000000000000000e+00
  1 -3.42195999632736933e-02
  2 -7.79562573984646789e-02
  3  1.23776666511052624e-01
  4  1.93397405851552240e-01
  5  1.54063226005837467e-01
  6 -3.14323979251884322e-01
  7  1.32661415239317709e-01
  8  2.12010188395143545e-01
  9 -2.56318374292960560e-01
 10  1.08177441238888783e-01
 11  1.72883874792879561e-01
 12 -2.72119755076828396e-01
 13  1.14845157534965242e-01
 14  1.83540382443048350e-01
 15  3.53467014128527445e-04
 16  3.07826319212830841e-03
 17 -1.30000289327141666e-03
 18 -1.87483939410168217e-03
 19  1.92657450783765508e-03
 20  2.68745746486161912e-03
 21  2.33950346344731532e-02
 22 -9.87349145368843911e-03
 23 -1.42558462792513399e-02
 24  1.46381907746167949e-02
 25  2.02685780117127295e-03
 26  1.01505413529164100e-03
 27 -3.14946698383160903e-04
 28 -1.77318073763242266e-03
 29  1.93792139646684330e-03
 30  8.80313012905424206e-04
 31 -2.06472574695874388e-03
 32 -4.37611741664018783e-02
 33 -4.52648389801119239e-02
 34 -3.26300395678748856e-02
 35 -1.03002588053379123e-02
 36  4.99035154612813454e-03
 37  1.56238131572176385e-02
 38 -4.37619338683191555e-02
 39 -4.52683060327657219e-02
 40 -3.26367162463635091e-02
 41 -1.37355270323403847e-02
 42  1.22793190598999499e-02
 43  5.96762369013525713e-03
 44 -4.37668347206599043e-02
 45 -4.52688717425192844e-02
 46 -3.26245128887069497e-02
 47 -1.81139942566189288e-02
 48  5.19546056940274614e-04
 49  6.83854560156217650e-03
 Sym= A
 Ene=  8.36637769555540964e-03
 Spin= Alpha
 Occup=  0.00000000000000000e+00
  1 -4.31589164784342144e-02
  2 -1.03415513210672605e-01
  3  2.53949484148346283e-01
  4 -9.04749026816111662e-02
  5  1.96554350745551343e+00
  6  9.47111233595383240e-02
  7 -3.99050620877429915e-02
  8 -6.38586694797580595e-02
  9  5.14394360264023576e-02
 10 -2.16453842653918510e-02
 11 -3.46758497729824505e-02
 12  3.00832939515692954e-01
 13 -1.26821258147744087e-01
 14 -2.02851875420162364e-01
 15 -3.41438717286371689e-04
 16 -2.97420134679784792e-03
 17  1.25574252701746289e-03
 18  1.81220070632051719e-03
 19 -1.86132122711917783e-03
 20 -1.10967076865496053e-03
 21 -9.67210209702145697e-03
 22  4.07776960426033553e-03
 23  5.89531476720230822e-03
 24 -6.05030978935444316e-03
 25 -1.04302989719239764e-03
 26 -1.14931459786994585e-03
 27 -1.90391409768789715e-04
 28 -2.83391935120002030e-03
 29  2.20993820078041383e-03
 30 -6.58112917299494586e-04
 31  5.59739781001826432e-04
 32 -2.22070159262115277e-02
 33 -4.33936100367976266e-02
 34 -9.60566676585483115e-01
 35 -2.72089641665672934e-02
 36  8.35694182055995126e-03
 37 -2.38599962737546314e-02
 38 -2.22202355155367813e-02
 39 -4.34234544341864093e-02
 40 -9.60634343473927510e-01
 41 -1.04911565273545296e-02
 42 -2.71080116303511268e-02
 43  2.31193546399105672e-02
 44 -2.21905552486670703e-02
 45 -4.33532017944573272e-02
 46 -9.60453311698754253e-01
 47  1.08006796887677881e-02
 48  3.01048391216247324e-02
 49  1.88816810089348745e-02
 Sym= A
 Ene=  8.96338879092852120e-02
 Spin= Alpha
 Occup=  0.00000000000000000e+00
  1  2.22102764539754074e-06
  2  5.63124948130596334e-06
  3 -2.42622740898324234e-05
  4  7.20603906152513917e-05
  5 -2.92425866553636267e-04
  6 -4.03104740077518467e-02
  7  1.95525209618357926e-01
  8 -1.82103489744340763e-01
  9 -1.51706810138554516e-02
 10  7.36210193253784007e-02
 11 -6.85853094039695632e-02
 12 -1.35143821312076862e-01
 13  6.55466695252208353e-01
 14 -6.10442160804813283e-01
 15  1.36282400874841074e-03
 16  4.20006382728429356e-03
 17  3.57857287514629519e-03
 18  3.49776941900722298e-03
 19 -1.14287430253056776e-03
 20  4.13453346635183228e-03
 21  3.90258955812270505e-02
 22  3.07553259251687021e-02
 23  2.69457479810707931e-02
 24 -1.61422767553114459e-02
 25 -3.35980721344047778e-03
 26 -1.70071887601582145e-03
 27 -3.91230579659525898e-03
 28  2.32679601473249117e-03
 29  1.88111861060126940e-03
 30  3.95979891909998671e-03
 31 -2.07968062487733042e-03
 32  2.63161013355439621e-02
 33 -4.13883072356212856e-02
 34  1.54893708424495213e+00
 35  4.29188110626664218e-02
 36 -6.67113676003411749e-03
 37  2.49920112513559237e-02
 38 -3.38111432256151603e-02
 39  5.31027823026346615e-02
 40 -1.98913978597594232e+00
 41 -2.71275227058650065e-02
 42 -4.11558590976438196e-02
 43  4.05098162445404059e-02
 44  7.47550023922965122e-03
 45 -1.17990630975343090e-02
 46  4.40568467330371083e-01
 47 -4.77112447780043969e-03
 48 -5.61168788171185345e-03
 49 -1.57427115487492920e-02
 Sym= A
 Ene=  8.96502231572045005e-02
 Spin= Alpha
 Occup=  0.00000000000000000e+00
  1  4.23822169000790456e-06
  2  1.04680229381335639e-05
  3 -3.76355510245062372e-05
  4  9.25128901654361115e-05
  5 -4.41512578469079736e-04
  6  1.63317383332576810e-01
  7  1.63759575623920878e-01
  8  1.39680984372879319e-01
  9  6.14566755379333945e-02
 10  6.15961164281286430e-02
 11  5.25414421365369769e-02
 12  5.47538165339172656e-01
 13  5.49070065614457370e-01
 14  4.68336405486200869e-01
 15 -2.28486162694618595e-03
 16 -9.27348066927318328e-04
 17  4.97799983060627938e-03
 18 -2.01236471525979670e-03
 19  3.29971585222165733e-03
 20 -1.32096962267704808e-02
 21 -8.46716968108656744e-03
 22  4.58288591133911224e-02
 23 -2.38520621119557123e-02
 24  2.36500251274529630e-02
 25  4.29081448880910734e-03
 26 -1.53235683808461399e-03
 27 -3.06114992191218547e-03
 28  1.60483383488817959e-03
 29  1.99593751965094829e-03
 30  5.03174153573250149e-04
 31  4.63904348716438590e-03
 32 -2.38185431459825916e-02
 33  3.75462938208400848e-02
 34 -1.40281828398885144e+00
 35 -3.40069862285254723e-02
 36  1.91171648354511413e-02
 37 -2.36053551037848468e-02
 38 -1.08651047650257220e-02
 39  1.71221093982832466e-02
 40 -6.39831003532038478e-01
 41 -1.96541171888582741e-03
 42 -9.37224209257409534e-03
 43  2.06359612132247065e-02
 44  3.46622429572295138e-02
 45 -5.47646674897116423e-02
 46  2.04319153942788478e+00
 47 -8.68528197860729372e-03
 48 -5.45386029881828049e-02
 49 -3.52352778843995421e-02
 Sym= A
 Ene=  2.72713054540277888e-01
 Spin= Alpha
 Occup=  0.00000000000000000e+00
  1  1.60882425113514574e-06
  2  2.80770481475096683e-06
  3 -5.66641994858947777e-06
  4  3.78245925645300462e-05
  5  2.43689212038133881e-04
  6  3.78656891773709219e-03
  7 -1.09371872557747895e-02
  8  1.24794000465635827e-02
  9  6.71110647093944301e-02
 10 -1.93398463237818535e-01
 11  2.20505671789682028e-01
 12  3.35492704296911914e-01
 13 -9.66745877659935249e-01
 14  1.10218282917093413e+00
 15  4.69369206747796870e-03
 16 -2.47736445643832945e-02
 17 -1.33631936970128214e-02
 18 -1.42480984436977303e-02
 19  1.58464410438516543e-02
 20 -4.71256804315697553e-02
 21  1.40681013990855863e-01
 22  7.06562682278064486e-02
 23  7.03800544673016670e-02
 24 -9.99801903854591195e-02
 25 -1.38715658310948047e-02
 26  3.30173006725223168e-03
 27 -1.36064131561682428e-02
 28  3.03975715747012345e-03
 29  3.04898738067826362e-03
 30  1.42694603368201233e-02
 31 -3.57986447924625107e-03
 32 -1.05370887953304876e-01
 33 -1.24740449032188661e+00
 34  1.05035957777993419e-01
 35  6.93754580683984268e-02
 36 -3.64492196886305117e-02
 37  7.16776200042306272e-02
 38  1.16678537780601527e-01
 39  1.38119891914719628e+00
 40 -1.16529692778738730e-01
 41 -2.27121560950057887e-02
 42 -8.36802834371442594e-02
 43  7.84531127004041012e-02
 44 -1.13014081270416608e-02
 45 -1.33833753513840303e-01
 46  1.12274813635946605e-02
 47  3.38884624637544570e-03
 48 -2.41094263360080163e-02
 49  1.43187441743697248e-02
 Sym= A
 Ene=  2.72735920107648189e-01
 Spin= Alpha
 Occup=  0.00000000000000000e+00
  1  1.56945766783885191e-06
  2  1.88203558777566827e-06
  3 -9.07491677837790186e-06
  4  9.63107982459947536e-05
  5  5.23160612888177762e-04
  6 -9.91303793889521112e-03
  7 -1.17578715134053022e-02
  8 -7.29372905865253301e-03
  9 -1.75012512662130026e-01
 10 -2.08104366944330238e-01
 11 -1.29274984603637233e-01
 12 -8.74485299003223582e-01
 13 -1.04004240259738490e+00
 14 -6.46114447432316386e-01
 15  1.81077878591723155e-03
 16  2.08703267283613571e-03
 17 -3.00396197623269343e-02
 18  1.77127623385071216e-02
 19 -6.67875187180131270e-03
 20  4.65871084611641905e-03
 21 -1.15219808555387555e-02
 22  1.69017504683090819e-01
 23 -1.13168133158802253e-01
 24  2.13942487898719225e-02
 25  1.30043121110989986e-02
 26 -9.52973752458602733e-03
 27 -8.15150879728348578e-03
 28  1.51134509335356759e-03
 29  1.81297657457877041e-03
 30  9.86097801922242514e-03
 31  1.39444900202480154e-02
 32  7.38883618854996038e-02
 33  8.74789736824997277e-01
 34 -7.34042322326004526e-02
 35 -5.96893505833399896e-02
 36 -4.11403661977551884e-03
 37 -4.80774258705747234e-02
 38  5.43033263758214910e-02
 39  6.42936427376651354e-01
 40 -5.40507643300535273e-02
 41 -2.83692039165660999e-02
 42 -4.91466726265199771e-02
 43  1.64971541429067385e-02
 44 -1.28203905359624004e-01
 45 -1.51797518142192067e+00
 46  1.27013542720718547e-01
 47 -4.24138165303432346e-02
 48 -1.01908666408275811e-01
 49 -6.48129015445624845e-02
 Sym= A
 Ene=  3.24825016446502468e-01
 Spin= Alpha
 Occup=  0.00000000000000000e+00
  1 -2.57291022489856795e-02
  2 -5.30773156021445008e-02
  3 -3.79796650003927441e-02
  4  7.43197941752280378e-01
  5  5.07831510147110435e-02
  6 -2.26249511977924506e-01
  7  9.54919090248356472e-02
  8  1.52603547723787869e-01
  9 -4.73239167303664054e-01
 10  1.99725515883529076e-01
 11  3.19202422863927915e-01
 12  1.07625716856510900e+00
 13 -4.54131520000482347e-01
 14 -7.25838954895153821e-01
 15  4.15370494977325378e-04
 16  3.61333707307905398e-03
 17 -1.52294157333426211e-03
 18 -2.20266985750966655e-03
 19  2.26053243450070624e-03
 20  7.83048522394254754e-04
 21  6.87572562192543309e-03
 22 -2.89768928951404658e-03
 23 -4.17868148017230216e-03
 24  4.30722088011973193e-03
 25  2.70019898806617229e-03
 26  3.02204374983420588e-03
 27  5.18890825227561348e-04
 28  7.61341075403354235e-03
 29 -5.95670373220597710e-03
 30  1.71785154857043349e-03
 31 -1.41325713760855802e-03
 32 -1.26079333439038342e-02
 33 -3.85049519432801246e-01
 34 -1.28159446515706196e-02
 35  2.18516541339589150e-02
 36 -6.78728772330208438e-03
 37  1.81244939792715651e-02
 38 -1.26084456628803316e-02
 39 -3.85051021206023691e-01
 40 -1.27578348835607775e-02
 41  8.83451499931129335e-03
 42  2.08197494196033159e-02
 43 -1.84486243274591018e-02
 44 -1.26000958228855778e-02
 45 -3.84936321815141369e-01
 46 -1.28566578461003968e-02
 47 -7.73527530706134316e-03
 48 -2.37143812109198576e-02
 49 -1.51506258950741806e-02
 Sym= A
 Ene=  4.15618731937688946e-01
 Spin= Alpha
 Occup=  0.00000000000000000e+00
  1  5.98066516887213948e-02
  2  1.25717437499157647e-01
  3  1.17085334036215988e-01
  4 -2.38175122395035199e+00
  5  2.81479485353570125e+00
  6 -1.42695585065668734e-01
  7  6.00659408075669213e-02
  8  9.61978804847806596e-02
  9 -4.53124657904668382e-01
 10  1.90984469896049502e-01
 11  3.05535918726435651e-01
 12  3.65469583902792605e-01
 13 -1.53257985007125674e-01
 14 -2.46274202638811501e-01
 15  6.41935933851144470e-04
 16  5.59549365832122652e-03
 17 -2.36034809596203125e-03
 18 -3.40985074907851652e-03
 19  3.49956557397158169e-03
 20  5.87560237945068263e-04
 21  5.00246306352658023e-03
 22 -2.18940159019716642e-03
 23 -3.04491037387674560e-03
 24  3.14730946294896697e-03
 25 -5.12320308587878390e-03
 26 -7.35440514443022695e-03
 27 -1.89219490809880387e-03
 28 -2.41584905107572016e-02
 29  1.96118247688987918e-02
 30 -3.79357031303325471e-03
 31  1.37223274397661223e-03
 32  1.00720172407517600e-01
 33  9.37015221607654936e-01
 34 -1.09150113013123939e+00
 35 -5.50994326638067494e-02
 36  1.88597893218381621e-02
 37 -2.21514375610617556e-02
 38  1.00731857539516328e-01
 39  9.36936056911753967e-01
 40 -1.09209212438809788e+00
 41 -3.15942910142882963e-02
 42 -3.09515074928648631e-02
 43  4.38414582494024291e-02
 44  1.00700407204562720e-01
 45  9.37034331303442602e-01
 46 -1.09071262732739971e+00
 47 -1.68861159539425865e-03
 48  4.94548870778387384e-02
 49  3.79365820920659555e-02
 Sym= A
 Ene=  4.74402152540086663e-01
 Spin= Alpha
 Occup=  0.00000000000000000e+00
  1 -2.56357689511469526e-02
  2 -4.60379920736077794e-02
  3 -1.04076719016097843e-01
  4  1.78372218478174682e+00
  5 -6.26409068575279626e+00
  6 -4.40584345741627803e-03
  7  1.69396853805674923e-03
  8  2.97424954285177307e-03
  9 -1.16231270429972375e-01
 10  4.86936247786155033e-02
 11  7.84110898019039215e-02
 12 -9.49524779802542462e-01
 13  4.01560199427154541e-01
 14  6.40268116913415897e-01
 15  1.21377987187464985e-03
 16  1.05954148860267858e-02
 17 -4.47087743688436966e-03
 18 -6.45452467352599160e-03
 19  6.62976462238449183e-03
 20  5.12710826854764767e-03
 21  4.45860286318512100e-02
 22 -1.88526053558495284e-02
 23 -2.71723596407062659e-02
 24  2.79095587309981900e-02
 25 -3.87554034103936539e-03
 26 -4.23495884440158732e-03
 27 -6.87828666585635893e-04
 28 -1.03225207845481972e-02
 29  8.03065480178261418e-03
 30 -2.43152281151770089e-03
 31  2.10916402808953348e-03
 32  2.33137858693612809e-02
 33  1.10067476243102180e+00
 34  1.03436292541662755e+00
 35 -4.23995842903370779e-02
 36  1.57815036079469589e-02
 37  3.31833851236789436e-05
 38  2.33577242607686149e-02
 39  1.10089228466942313e+00
 40  1.03307232193577136e+00
 41 -3.10786208694530941e-02
 42 -8.21260263706166845e-03
 43  3.18246574473414895e-02
 44  2.32839852094761206e-02
 45  1.10043577602143272e+00
 46  1.03522155446370934e+00
 47 -1.66911184122698654e-02
 48  3.04974663043048322e-02
 49  2.89679306983020822e-02
 Sym= A
 Ene=  4.82667322754935013e-01
 Spin= Alpha
 Occup=  0.00000000000000000e+00
  1 -5.39510621402029079e-06
  2 -1.41471396456900246e-05
  3 -8.85144150687526463e-06
  4  8.38222103732828248e-05
  5  1.29135932915091308e-03
  6  6.35302554378600060e-02
  7 -2.59242178863611394e-01
  8  2.56332448023882831e-01
  9  1.73096974386571983e-01
 10 -7.06065488748822911e-01
 11  6.98059169430974791e-01
 12 -3.49901326699501580e-01
 13  1.42929379658554323e+00
 14 -1.41367892905282644e+00
 15 -5.09355966914431125e-03
 16  1.00253395288620444e-04
 17 -1.35238935780066178e-03
 18 -3.02187809095722740e-03
 19 -3.09321397338584029e-03
 20  1.30269748433179495e-04
 21 -6.55929748859186007e-03
 22 -4.57713546825819478e-03
 23 -4.07830938121896396e-03
 24  3.36221246576690145e-03
 25 -3.42901353715031410e-03
 26  2.39801916804607438e-03
 27 -3.97534785149557257e-03
 28 -1.65897690143939936e-04
 29  1.71049858272925192e-04
 30  4.25890992973903138e-03
 31  5.51071346358286110e-04
 32 -7.98483202366327138e-02
 33 -5.37419793185781036e-01
 34  1.80515356963008711e+00
 35  7.01424318691299276e-03
 36 -1.16480818507226445e-02
 37  1.19027677336725115e-02
 38  9.79543147685917326e-02
 39  6.58314910399060205e-01
 40 -2.21596460425926223e+00
 41 -6.30862616495054922e-04
 42 -1.32955535003680351e-02
 43  1.43739500467783398e-02
 44 -1.81853292578385735e-02
 45 -1.22727112247466907e-01
 46  4.10605267498211635e-01
 47  2.49209606084595595e-03
 48 -1.10611802755296584e-02
 49  9.26279392650827815e-03
 Sym= A
 Ene=  4.82705830384951018e-01
 Spin= Alpha
 Occup=  0.00000000000000000e+00
  1 -1.37363633203148094e-05
  2 -3.13622018253643185e-05
  3 -3.77617657151039531e-05
  4  5.14444303574707225e-04
  5  6.44255695884387268e-04
  6 -2.21448030478648056e-01
  7 -2.34148612508339127e-01
  8 -1.81919576045107390e-01
  9 -6.03108088005420817e-01
 10 -6.37836020524379488e-01
 11 -4.95596944390614913e-01
 12  1.22140123207009177e+00
 13  1.29086039153435261e+00
 14  1.00277832934014266e+00
 15  4.42110154889164674e-03
 16  6.46315698227238080e-05
 17 -1.91689014540058679e-04
 18 -3.14614884150449985e-03
 19 -4.12067637150129434e-03
 20  1.38092217422212168e-03
 21  1.13490121104705766e-03
 22 -7.70553943682957248e-03
 23  4.31750586349331604e-03
 24 -3.08517124862085854e-03
 25  3.66446954454038550e-03
 26 -3.47505281371136582e-03
 27 -9.24237445412693119e-04
 28 -6.49298671151617114e-04
 29 -8.13835334530391835e-04
 30  3.61320843429997719e-03
 31  3.38433360279986710e-03
 32  6.70249699840315544e-02
 33  4.50461568735003981e-01
 34 -1.51649359406972661e+00
 35 -1.23943953962049273e-02
 36 -7.84662139462618570e-03
 37 -8.68840684236741982e-03
 38  3.55685477459219482e-02
 39  2.38827876243216636e-01
 40 -8.05085393753036782e-01
 41 -9.74703459128565229e-03
 42 -1.02774761694315493e-02
 43 -5.51328122869558339e-03
 44 -1.02699125154987234e-01
 45 -6.91383719311749134e-01
 46  2.32190930952633057e+00
 47 -8.57127310429022828e-03
 48 -1.44502889628386755e-02
 49 -1.11321524105558404e-02
 Sym= A
 Ene=  8.49482200585478520e-01
 Spin= Alpha
 Occup=  0.00000000000000000e+00
  1 -3.37180959159691694e-07
  2 -6.70019747179955957e-07
  3 -7.50140212206231256e-06
  4  4.64467562100704154e-05
  5  8.15020711960853024e-05
  6 -2.60697155221427043e-02
  7 -3.35078943964799772e-02
  8 -1.76681097130099440e-02
  9 -3.12923663247223552e-02
 10 -4.02710226929357679e-02
 11 -2.12526163225149750e-02
 12 -1.06597906904394704e-01
 13 -1.37035244725565580e-01
 14 -7.22833869738117168e-02
 15  7.50406695727345971e-04
 16 -8.24532382201800271e-06
 17  1.35156120228766019e-03
 18 -1.62162610484610460e-03
 19 -7.91519645990178418e-04
 20 -4.12554713296055420e-01
 21 -1.02206572852172311e-02
 22  8.16829038564082649e-02
 23  3.82062865297254639e-01
 24  5.18941377118595892e-01
 25  4.72402467446577951e-03
 26 -4.12296361161791462e-03
 27 -2.91269102876537704e-03
 28 -1.43057411532008892e-04
 29 -1.38371389722356634e-04
 30  5.20310988218073388e-03
 31  5.26639362790498784e-03
 32 -6.92156516726585586e-03
 33  9.92774740370486325e-02
 34  1.38735308827867155e-02
 35  9.01517816580496845e-02
 36  1.10802982716290840e-01
 37 -8.38823874202207359e-02
 38 -6.28823230246313390e-03
 39  9.02013419133572830e-02
 40  1.25965809647786715e-02
 41  1.44391892948798450e-01
 42 -2.66261053306520281e-03
 43  8.10317270923667926e-02
 44  1.31949410148533130e-02
 45 -1.89622254774913290e-01
 46 -2.64859167431064982e-02
 47 -1.56951795306225217e-01
 48 -8.49936028731045068e-03
 49  5.53746503987108465e-02
 Sym= A
 Ene=  8.49504746351793294e-01
 Spin= Alpha
 Occup=  0.00000000000000000e+00
  1 -3.50357076314057545e-08
  2 -9.87451495520998995e-08
  3 -3.46008323486904276e-06
  4  2.63261841754407082e-05
  5 -3.19618951923664130e-06
  6  1.18513281342457703e-02
  7 -2.75912220654852096e-02
  8  3.48346865461213323e-02
  9  1.42429232766527400e-02
 10 -3.31363284630310714e-02
 11  4.18271030895229351e-02
 12  4.84392919686716036e-02
 13 -1.12753668145779001e-01
 14  1.42383728027258460e-01
 15 -1.54665641294889967e-03
 16  1.18564726467461205e-03
 17  2.32410508774531002e-04
 18  1.23839851668998852e-04
 19 -1.33399035169164950e-03
 20  6.37588105255494031e-01
 21  1.96829763956217485e-02
 22  1.62270056126557621e-01
 23  3.04531301699694779e-01
 24  2.57515703573799160e-01
 25 -5.82171670779312988e-03
 26  2.85899650637062418e-03
 27 -5.41017638173493971e-03
 28  5.47614775497482940e-04
 29  8.13834404577468791e-04
 30  5.43994571139839751e-03
 31 -8.70574239314473447e-04
 32  1.12454934620760741e-02
 33 -1.61523248355702254e-01
 34 -2.25286601572298011e-02
 35 -3.68926758330279519e-02
 36  1.14749923408915405e-01
 37  1.14564744335087371e-01
 38 -1.16084950506864445e-02
 39  1.66723034220942035e-01
 40  2.32555442259588692e-02
 41  5.11526838081630408e-02
 42 -1.28279847096592375e-01
 43 -9.27973973855943102e-02
 44  3.64305067001658984e-04
 45 -5.22829564893074160e-03
 46 -7.20948011831817437e-04
 47 -4.94823180976994015e-02
 48  9.55451469374070939e-02
 49 -1.25346189412516101e-01
 Sym= A
 Ene=  1.08456806155687735e+00
 Spin= Alpha
 Occup=  0.00000000000000000e+00
  1  3.11539278953747644e-03
  2  1.11309626469710734e-02
  3 -1.76581117698867501e-01
  4  1.96959040499295551e-01
  5  2.86669357004711500e+00
  6  9.35363410158746300e-02
  7 -3.94845808587716771e-02
  8 -6.30931595302380993e-02
  9  1.90847112917755635e-01
 10 -8.07685224544699293e-02
 11 -1.28806274454384667e-01
 12  6.97560553828011742e-01
 13 -2.94403003798607288e-01
 14 -4.70471995221497519e-01
 15 -8.10747153607923481e-04
 16 -7.05882190136831057e-03
 17  2.98250923434021558e-03
 18  4.30003292479307075e-03
 19 -4.41800345789252879e-03
 20  8.65294346867501868e-02
 21  7.54284046207062908e-01
 22 -3.18190066392188275e-01
 23 -4.59541125860169652e-01
 24  4.72069102690558795e-01
 25 -3.35129158616450902e-03
 26  2.89515917675787224e-03
 27  3.08783650943973307e-03
 28  3.02928478950393251e-02
 29 -2.66208656633167735e-02
 30  4.36697120842106189e-05
 31  7.09340196446974370e-03
 32 -5.27127030028860647e-04
 33 -1.16593060147260008e+00
 34 -3.15769196094773497e-01
 35 -1.04018155784080398e-03
 36  1.04883293909365065e-02
 37  1.35882441126641079e-01
 38 -5.21651158367763493e-04
 39 -1.16578918493549666e+00
 40 -3.15721192352865498e-01
 41 -5.45906336975582329e-02
 42  1.24025267925774105e-01
 43 -1.45129554011349943e-02
 44 -5.22018903385366799e-04
 45 -1.16632972467195350e+00
 46 -3.15766815505651499e-01
 47 -1.22785511537094938e-01
 48 -5.92481947170034329e-02
 49 -1.03401636852562128e-03
 Sym= A
 Ene=  1.19870972545065690e+00
 Spin= Alpha
 Occup=  0.00000000000000000e+00
  1 -2.26838767064281216e-06
  2 -4.05083866378320435e-06
  3  1.30071087663069182e-04
  4 -8.45940910467243693e-04
  5 -5.15859196028901833e-05
  6 -1.16095174634768643e-02
  7 -1.12816487021808534e-02
  8 -1.01834271802246201e-02
  9  7.46099680447276481e-01
 10  7.23993038260607680e-01
 11  6.53597050924315748e-01
 12  6.09878412872522424e-01
 13  5.91681828699237022e-01
 14  5.34091395771890576e-01
 15  7.04377172862750652e-04
 16  1.77672627065745821e-04
 17 -8.67238783845584028e-04