[Molden Format]
[Atoms] (AU)
O    1    8        -0.123672762329       0.000000046922       0.000000000000
H    2    1         0.981388135752       1.445736960150       0.000000000000
H    3    1         0.981388349216      -1.445737704840       0.000000000000
[GTO]
  1 0
 s    6  1.00
    27032.3826310000         0.0002172630
     4052.3871392000         0.0016838662
      922.3272271000         0.0087395616
      261.2407098900         0.0352399688
       85.3546413510         0.1115351912
       31.0350352450         0.2558895396
 s    2  1.00
       12.2608607280         0.3976873090
        4.9987076005         0.2462784943
 s    1  1.00
        1.1703108158         1.0000000000
 s    1  1.00
        0.4647474099         1.0000000000
 s    1  1.00
        0.1850453636         1.0000000000
 p    4  1.00
       63.2749548010         0.0060685103
       14.6270493790         0.0419125758
        4.4501223456         0.1615384109
        1.5275799647         0.3570695131
 p    1  1.00
        0.5293511794         1.0000000000
 p    1  1.00
        0.1747842127         1.0000000000
 d    1  1.00
        2.3140000000         1.0000000000
 d    1  1.00
        0.6450000000         1.0000000000
 f    1  1.00
        1.4280000000         1.0000000000

  2 0
 s    3  1.00
       34.0613410000         0.0060251978
        5.1235746000         0.0450210940
        1.1646626000         0.2018972600
 s    1  1.00
        0.3272304100         1.0000000000
 s    1  1.00
        0.1030724100         1.0000000000
 p    1  1.00
        0.8000000000         1.0000000000

  3 0
 s    3  1.00
       34.0613410000         0.0060251978
        5.1235746000         0.0450210940
        1.1646626000         0.2018972600
 s    1  1.00
        0.3272304100         1.0000000000
 s    1  1.00
        0.1030724100         1.0000000000
 p    1  1.00
        0.8000000000         1.0000000000

[5D]
[9G]

[MO]
 Sym= A
 Ene= -1.88805192574936065e+01
 Spin= Alpha
 Occup=  1.00000000000000000e+00
  1  4.35566813495135263e-01
  2  6.39997606538640795e-01
  3  3.15189803904794077e-02
  4 -1.90461909391900011e-02
  5  7.61344831563787877e-03
  6  1.69115076577062745e-03
  7 -3.18375275969150083e-11
  8  1.13112230766851065e-16
  9 -2.54969833565242641e-03
 10  9.74216977833509091e-10
 11 -1.58191967650223870e-16
 12  9.85807933791407265e-04
 13  5.40736921977151157e-10
 14  4.81342382360836040e-18
 15 -1.36763898677173454e-04
 16  5.21437331492991233e-17
 17  5.17511543922800272e-17
 18 -4.95159209300656349e-05
 19 -7.38670133735834273e-14
 20  6.99775892992123309e-04
 21 -9.38037898914099918e-17
 22  2.05251856457785549e-17
 23  2.65290865036864950e-04
 24  7.17906733402803975e-10
 25  1.21291362683998656e-17
 26  1.40883189222757918e-04
 27 -1.68573558503524011e-10
 28 -2.41261498514130543e-18
 29 -1.16368981980161634e-16
 30  2.60678209759633681e-04
 31 -8.72228947429457577e-12
 32  6.55124124286399624e-04
 33  1.26400318953494100e-03
 34 -1.57408824329019004e-03
 35 -4.74687881273136393e-04
 36 -6.99864444199496216e-04
 37  1.34233225638025714e-17
 38  6.55124121812754204e-04
 39  1.26400416833363522e-03
 40 -1.57408671545808680e-03
 41 -4.74688995284774159e-04
 42  6.99865986178931088e-04
 43  2.72288525486571282e-16
 Sym= A
 Ene= -9.44031916260372084e-01
 Spin= Alpha
 Occup=  1.00000000000000000e+00
  1  9.71370606145015858e-02
  2  2.29597156025240640e-01
  3 -3.35614561991978866e-01
  4 -4.39194803449554971e-01
  5 -1.55324462128386215e-01
  6 -8.87893129220036076e-02
  7 -6.80589835566980368e-08
  8 -3.51827504118888710e-16
  9 -7.43753904724194781e-02
 10 -2.69198089013363227e-08
 11 -1.46129792982648159e-16
 12 -1.33726205714618050e-02
 13 -2.00814150682345146e-09
 14 -2.42284630773610616e-16
 15  4.61118211471221121e-03
 16  1.50886852655599335e-16
 17 -2.03643684248536421e-16
 18  1.08222185857336710e-03
 19 -7.07137356447983638e-09
 20  1.10059805707058891e-02
 21  6.02509196446757289e-18
 22  1.59566656502591372e-16
 23  1.25818406033179975e-03
 24  1.39190418529490070e-09
 25 -7.87074838378675904e-17
 26  2.66911758379872457e-03
 27  1.69186471814582453e-09
 28 -5.42591526829657400e-17
 29 -8.17076774275378252e-17
 30  4.07414324727128473e-03
 31 -2.06804969221728469e-09
 32 -9.52144647084490897e-02
 33 -7.02982421987912304e-02
 34 -4.97685605841461948e-03
 35  7.54301109213129269e-03
 36  1.43499552479454291e-02
 37 -2.15111306148368358e-16
 38 -9.52143482952879094e-02
 39 -7.02981784950673788e-02
 40 -4.97684811113208170e-03
 41  7.54299442963158803e-03
 42 -1.43499410616154122e-02
 43  6.17460869092808450e-17
 Sym= A
 Ene= -4.84264704623358022e-01
 Spin= Alpha
 Occup=  1.00000000000000000e+00
  1  1.92684343710166174e-08
  2  4.54841588807699614e-08
  3 -5.85466148033637442e-08
  4 -1.40341755134372630e-07
  5 -1.22870238310827241e-07
  6  9.25360913268037752e-08
  7  3.83044763915862285e-01
  8  1.54074631038475366e-16
  9  4.50952034947309900e-08
 10  3.01518878656529543e-01
 11 -7.58785003637587013e-17
 12  1.98185197457102234e-08
 13  1.17673005275076917e-01
 14  3.30935762730933541e-16
 15 -3.40197823150771125e-09
 16 -1.22912979185370968e-16
 17  1.04241728232985570e-16
 18 -1.13985684833973796e-10
 19  1.24098067029937836e-02
 20  2.54649550384979996e-09
 21  1.27297077083319554e-16
 22  1.59499879752546093e-16
 23  5.70312317685959614e-09
 24  2.59316778724107931e-02
 25  7.69101081054022611e-17
 26 -1.08266750747857691e-09
 27 -5.38165702681692691e-03
 28 -1.97381140426082344e-16
 29 -1.84571214297548515e-16
 30 -1.22469371420281786e-09
 31  1.87637607570428043e-04
 32  1.48984466269588695e-01
 33  1.85998673737733183e-01
 34  6.55038372447436790e-02
 35 -1.52329536489658451e-02
 36 -6.17928404934972413e-03
 37  1.84779104431067530e-16
 38 -1.48984444133906296e-01
 39 -1.85998695665409330e-01
 40 -6.55038638747075797e-02
 41  1.52329465243473197e-02
 42 -6.17928616026905408e-03
 43  4.11938578092163163e-17
 Sym= A
 Ene= -3.37344236268882935e-01
 Spin= Alpha
 Occup=  1.00000000000000000e+00
  1 -3.75429974245187828e-02
  2 -9.01744450536551972e-02
  3  1.41841362874973814e-01
  4  1.96586454478572092e-01
  5  2.30433861155637937e-01
  6 -4.13549630622334685e-01
  7  5.87428893599773291e-08
  8  1.42865199944975245e-15
  9 -3.24423972295147134e-01
 10  6.51301327892454386e-08
 11  1.39749552539032142e-15
 12 -2.33275699010049631e-01
 13  3.41602766293185383e-08
 14  7.69563413584517790e-16
 15  4.61076665508336828e-03
 16 -8.49178082761633707e-17
 17  1.71737717833420589e-16
 18 -3.12276593835050277e-03
 19 -2.08064853851302493e-09
 20  1.28369964778058225e-02
 21 -1.18223855603554197e-16
 22 -2.32543855614539580e-16
 23 -2.07451381962043442e-02
 24  5.07264934801317178e-09
 25  1.10079213331435087e-16
 26  3.57845007783344710e-03
 27 -6.70203470419043568e-10
 28 -7.79775113650236399e-17
 29  5.04105435744376402e-18
 30  2.13714925296067419e-03
 31 -1.66323862333583101e-09
 32 -8.67265463825851873e-02
 33 -1.23966974388850723e-01
 34 -4.66289619543118969e-02
 35 -1.20965397095036675e-02
 36  1.49500834069449372e-02
 37 -6.40518967281314215e-17
 38 -8.67265682153017803e-02
 39 -1.23967043650200726e-01
 40 -4.66290325062308567e-02
 41 -1.20965372892876556e-02
 42 -1.49500772220243910e-02
 43  8.92922226650543770e-17
 Sym= A
 Ene= -2.60648931520918947e-01
 Spin= Alpha
 Occup=  1.00000000000000000e+00
  1 -1.02450305605710785e-16
  2 -2.26865058308355905e-16
  3 -1.06864306216631084e-15
  4  5.76497395945261135e-15
  5 -3.86758297780946016e-15
  6 -1.67735336376397242e-15
  7 -1.49916703110321587e-15
  8 -4.74674838131284804e-01
  9  8.21123939501876739e-16
 10  2.48378810013434175e-16
 11 -3.85761462941282662e-01
 12 -2.15650312067883105e-15
 13  3.44990375101773038e-15
 14 -3.37787751803408753e-01
 15 -8.33223948382996250e-18
 16 -4.75103779629174484e-03
 17 -2.37112446919577637e-09
 18 -1.07407075801410894e-16
 19  1.37140696689999465e-16
 20 -9.42680528617551506e-16
 21 -2.50655858407598277e-02
 22 -2.03390801199827530e-09
 23 -3.35829956946670364e-16
 24  2.33862778619691479e-16
 25  4.88255509101370982e-03
 26  3.14461189477208782e-16
 27 -7.51828919422024249e-17
 28  1.34857106678598583e-03
 29 -1.40550581305982772e-09
 30 -1.37066334201992865e-16
 31  7.11780785032709139e-17
 32  1.83201954090641520e-16
 33 -2.42033453039755789e-15
 34  7.63606114757684394e-17
 35  6.16135088090205994e-16
 36  1.10743084793650472e-15
 37 -2.57111124185111506e-02
 38 -3.65928726366600095e-16
 39 -6.80987463344165095e-16
 40  3.92139877596187191e-15
 41  2.35731746520276139e-16
 42 -3.12166852467697257e-16
 43 -2.57111019199775075e-02
 Sym= A
 Ene=  6.87500300737457076e-03
 Spin= Alpha
 Occup=  0.00000000000000000e+00
  1  3.42645376695494136e-02
  2  8.68272532680042924e-02
  3 -1.99234718373333758e-01
  4  2.42827447417584275e-02
  5 -1.14177504664525786e+00
  6 -1.70648687983602637e-01
  7  2.69711354971706230e-07
  8 -2.02760696033987020e-16
  9 -1.22823105030445884e-01
 10  2.33915637892666525e-07
 11  9.90078632753167707e-16
 12 -3.28450206404828471e-01
 13  4.64197658579984862e-07
 14 -3.20166363291125477e-16
 15 -8.82463960577085428e-04
 16 -9.78865753304323732e-17
 17  3.35303744419309342e-17
 18 -2.68124579986985228e-03
 19 -3.82531260847346686e-09
 20 -3.29127280814325851e-03
 21  3.64428681545573242e-16
 22 -1.49844145860093964e-16
 23 -1.15220167242691667e-02
 24  6.23222905527653488e-09
 25 -1.63688058344439054e-17
 26  8.03035022042460967e-04
 27 -1.35483478676212598e-09
 28 -1.85800222902697269e-17
 29  1.14407386027415956e-17
 30 -5.52704818713092302e-05
 31 -2.95232216566778955e-09
 32  4.21664349320647266e-02
 33  1.11353607315412578e-01
 34  9.15494601526621432e-01
 35  1.96142464885885812e-02
 36  2.99830186855104021e-02
 37 -2.00939413295722713e-16
 38  4.21665921927656673e-02
 39  1.11353962274418156e-01
 40  9.15495858127675533e-01
 41  1.96142632830711046e-02
 42 -2.99830172942571749e-02
 43 -1.55897398422710816e-17
 Sym= A
 Ene=  8.13561556392384672e-02
 Spin= Alpha
 Occup=  0.00000000000000000e+00
  1  1.96556947726763742e-08
  2  5.26770773124638539e-08
  3 -1.67682144030306626e-07
  4  2.66906580339750349e-07
  5 -1.25365659192896638e-06
  6 -5.28087788693645758e-08
  7 -2.66964434507378501e-01
  8 -2.22670559025691775e-16
  9  4.22463479693476627e-08
 10 -1.31278598014236747e-01
 11 -9.05184404164661820e-16
 12 -2.19179573289860386e-07
 13 -6.79451185658027312e-01
 14  1.68988058537836693e-15
 15  2.00946507658936651e-09
 16 -9.59682971862300526e-17
 17 -1.64827656963195178e-16
 18  2.16351404125440152e-09
 19  1.61665778518112094e-03
 20 -1.24051286190262482e-08
 21 -5.37351090926268552e-17
 22  8.87793387701703531e-17
 23  1.47487892851844670e-09
 24  2.56496192155005603e-02
 25 -9.39330129127926432e-18
 26  9.74677660302547805e-11
 27 -1.39048810477837445e-04
 28 -1.08137805045488240e-16
 29  1.57181134072046076e-17
 30  8.00458796382987620e-10
 31  3.09712770675258731e-03
 32  3.84959053920262209e-02
 33  5.22264017711197778e-02
 34  1.59340029723228649e+00
 35  3.41992774757279572e-02
 36  3.63179740820720118e-02
 37 -6.69679567143270957e-17
 38 -3.84959904253079493e-02
 39 -5.22266877696316925e-02
 40 -1.59339848891329283e+00
 41 -3.41992000109965152e-02
 42  3.63179100333725358e-02
 43 -5.44511020317973657e-17
 Sym= A
 Ene=  3.38955158989445782e-01
 Spin= Alpha
 Occup=  0.00000000000000000e+00
  1  5.07804045254791153e-08
  2  1.13873880805146936e-07
  3 -5.96598725604128451e-08
  4 -8.10574052606751001e-07
  5  6.71178131151848445e-07
  6 -3.26562979100849318e-07
  7  1.30212189280597440e-01
  8 -9.58925251756992868e-16
  9 -4.54975730542096359e-07
 10  3.73240007353427772e-01
 11 -2.54058451350322945e-15
 12 -2.99120338074354884e-07
 13  1.08044267426831775e+00
 14  3.80171986516237183e-15
 15 -2.31593778609118834e-08
 16 -4.44749001435703538e-16
 17  2.95084096181145909e-16
 18 -2.31975710004917250e-08
 19 -3.17235849174612589e-02
 20 -2.12607501003576488e-08
 21  4.82511289240283945e-16
 22 -9.11817707407262633e-17
 23 -2.30947288136620084e-08
 24  1.08560594471575692e-01
 25  3.27207250432804442e-16
 26  1.47042801331650424e-09
 27 -1.10130293086778634e-02
 28  2.03606010282021247e-16
 29  3.79807952453499856e-17
 30  7.00363015359113161e-09
 31  2.96935766610534682e-03
 32 -1.26624623869710906e-01
 33 -1.43587111617659580e+00
 34  6.53093308290264463e-01
 35  3.76676505961413138e-02
 36  8.58393798000932490e-02
 37 -4.11923924310715359e-16
 38  1.26625015304798083e-01
 39  1.43587522895726494e+00
 40 -6.53096588800462952e-01
 41 -3.76676901546302983e-02
 42  8.58393466942514449e-02
 43 -2.68539476181809894e-16
 Sym= A
 Ene=  3.88342441708678598e-01
 Spin= Alpha
 Occup=  0.00000000000000000e+00
  1 -3.68402966214237612e-02
  2 -8.16704085334878510e-02
  3 -1.45658549895934155e-02
  4  8.91652657207740229e-01
  5  4.80348935950225320e-01
  6  2.53494975971453908e-02
  7  7.28809210747235994e-08
  8  6.26729182615576306e-15
  9  1.44536101951728113e-01
 10  7.52882719725753518e-07
 11  1.36911556101947443e-14
 12  1.16019644823530887e+00
 13  2.99511636150395229e-06
 14 -2.45569906657950643e-14
 15  1.91874921551660887e-02
 16  2.61942377294742177e-16
 17  4.45362259187014326e-17
 18  7.50442003365492036e-03
 19 -6.40133323962393183e-08
 20 -5.78483090930668187e-02
 21 -7.50010592697084103e-16
 22  3.46255341595660045e-17
 23  4.04864448743459150e-03
 24  3.55434991539133241e-07
 25  2.69655113816106212e-17
 26 -6.62098890772794355e-03
 27 -2.82141500507280044e-08
 28 -1.11863695943400308e-17
 29  1.75788449672547031e-17
 30 -1.38164155539209112e-02
 31  1.66789048731893801e-08
 32 -1.07042309604437197e-01
 33 -1.58579645914163669e+00
 34  5.54097231252623779e-01
 35  6.81813724510039465e-02
 36  5.95485006784949242e-02
 37  7.85514783167554013e-19
 38 -1.07041903867608895e-01
 39 -1.58579067379512195e+00
 40  5.54097417740812559e-01
 41  6.81810617505735350e-02
 42 -5.95479834110087536e-02
 43  3.14668160225254724e-16
 Sym= A
 Ene=  4.12598687624027016e-01
 Spin= Alpha
 Occup=  0.00000000000000000e+00
  1  2.16219879478339362e-16
  2  3.87270392183584004e-16
  3 -3.31912111952409439e-15
  4  1.38586852116118736e-14
  5  4.60797630127631094e-15
  6  9.58667203777358933e-14
  7 -6.52362855446333549e-16
  8 -3.26555073598019496e-01
  9  2.04254503775036116e-13
 10  1.94502614684916794e-15
 11 -6.90696071090059482e-01
 12 -2.69029415326715189e-13
 13 -1.21328056455415136e-15
 14  1.22709983726934513e+00
 15  2.04810231473739542e-16
 16 -6.72981309966003225e-03
 17 -2.45756416369608603e-09
 18  2.67094551929278439e-15
 19 -6.63076853486814893e-16
 20  3.10105019159061272e-15
 21  7.56733764703265699e-03
 22 -2.82987804747102303e-09
 23  7.57654809807929938e-16
 24  1.78128175601974482e-15
 25  2.05118075522923949e-03
 26 -5.06650326848939979e-16
 27  2.45635326426871181e-16
 28  7.35148238656125924e-04
 29 -2.73818154780807069e-11
 30 -1.10931545064331516e-15
 31 -7.52305946904849837e-16
 32 -1.88075093605122085e-14
 33 -1.40582551620291472e-13
 34  1.36174299157022023e-13
 35  4.80392194578522092e-15
 36 -1.26747082664240359e-15
 37 -8.69969014749519156e-04
 38 -1.93785280417821300e-14
 39 -1.41844813402049955e-13
 40  1.41874733651714072e-13
 41  2.74808185026342860e-15
 42  1.83063569368774890e-15
 43 -8.69936119495675047e-04
 Sym= A
 Ene=  4.14931902191384372e-01
 Spin= Alpha
 Occup=  0.00000000000000000e+00
  1  3.13131806037374996e-03
  2  6.07278038211305285e-03
  3 -3.09376580899568907e-03
  4 -2.71397227570195076e-02
  5  5.20530430337816765e-04
  6  3.46914993830556295e-01
  7  2.89591033199393173e-08
  8  9.02358371218428492e-14
  9  7.28222461534377197e-01
 10  3.52554943911909055e-07
 11  1.90833166379022476e-13
 12 -1.05143604995209317e+00
 13  1.70674083239333372e-06
 14 -3.39081438687498475e-13
 15 -3.77983025285569675e-04
 16  1.63864161548904628e-15
 17  8.38932231912645058e-17
 18  8.82196771774526774e-03
 19 -3.57294435012007247e-08
 20  1.32980565071299656e-02
 21 -2.03909458990858693e-15
 22  7.64765849088295686e-17
 23  1.94096641884311592e-03
 24  1.89344379971114701e-07
 25 -5.38949023151643175e-16
 26 -1.89189336103104898e-03
 27 -2.04799076736436706e-08
 28 -2.32128997794729794e-16
 29  5.70572665225924348e-17
 30 -2.88171255191095295e-03
 31  9.34258893274788953e-09
 32 -5.97275052193139144e-02
 33 -4.03756985513932132e-01
 34  4.61052266827537582e-01
 35  9.20029288784996943e-03
 36 -9.26652817989586861e-03
 37  4.07690704640486203e-16
 38 -5.97272938146461499e-02
 39 -4.03753795633978618e-01
 40  4.61052103025097026e-01
 41  9.20010143668334099e-03
 42  9.26681681612923080e-03
 43  6.21053932707368247e-16
 Sym= A
 Ene=  5.50805565929508023e-01
 Spin= Alpha
 Occup=  0.00000000000000000e+00
  1  3.03182515741229926e-08
  2  6.25306016156842556e-08
  3  2.08299360065046420e-08
  4 -1.42537597110506419e-06
  5  4.36255205758241012e-06
  6  3.99691242507757626e-08
  7  3.52334322344127038e-01
  8 -5.10818938712876580e-16
  9  3.56117549841045845e-07
 10  7.17200741575252598e-01
 11 -8.97023410368784493e-16
 12  1.40453927208978254e-06
 13 -2.09725498345387962e+00
 14 -7.83064169306703368e-16
 15  2.56895850351498925e-08
 16  7.73176495914952051e-17
 17 -9.74765644593732049e-18
 18  1.15101986438258774e-08
 19  1.22294083093628971e-02
 20 -8.95432544496918875e-08
 21 -7.20556369937071265e-16
 22 -9.66743543186460607e-16
 23 -1.60819883537285299e-08
 24 -6.56854396725457396e-02
 25 -1.71159218747687698e-16
 26 -1.45699370742786755e-08
 27  2.04327715396523122e-03
 28  1.30847888081166507e-16
 29  7.33853702261712072e-17
 30 -3.18360825398707370e-08
 31 -2.60618032130991622e-03
 32 -5.63351133495091083e-02
 33 -1.86353453267279791e-02
 34  1.61894713500073117e+00
 35 -3.07967755493755886e-02
 36 -3.66831362663651503e-02
 37  1.56209262167766509e-16
 38  5.63350888469550184e-02
 39  1.86315500591457787e-02
 40 -1.61894791453772768e+00
 41  3.07970270582377838e-02
 42 -3.66833946142216538e-02
 43  4.11782579517264099e-16
 Sym= A
 Ene=  5.78820651486944060e-01
 Spin= Alpha
 Occup=  0.00000000000000000e+00
  1 -5.14576842890237182e-02
  2 -1.08140950160441257e-01
  3 -7.91245702316047961e-02
  4  2.20764492749195851e+00
  5 -4.81617885275663493e+00
  6  6.96855522332152089e-02
  7  3.40099931331500157e-07
  8  7.13456246165170480e-16
  9 -1.22168242054872499e-02
 10  5.46613829920543829e-07
 11 -7.78935161176696161e-16
 12 -1.25152172150800145e+00
 13 -2.18319729952558665e-06
 14  1.24039601991820730e-19
 15 -1.64442677199993816e-02
 16  1.63264780714053242e-16
 17 -3.23380487076670662e-19
 18 -5.99737068433192719e-03
 19  9.74321995957812591e-09
 20  4.90977749416204243e-02
 21 -1.05820661303711952e-16
 22  1.04547805410022243e-15
 23 -2.62359712993242558e-04
 24 -9.51330610484460413e-08
 25  6.25651902079309179e-17
 26  5.04921005948241221e-03
 27 -2.69871929406734582e-09
 28  8.98813208047997063e-18
 29  3.77608273111208131e-18
 30  1.14169030156136067e-02
 31 -3.60946516575543450e-09
 32 -1.83050282765972912e-02
 33  9.31509043087057731e-01
 34  9.59359023133983801e-01
 35 -6.79013651319987643e-02
 36 -5.45784150232208401e-02
 37  6.65521433998090102e-16
 38 -1.83049183411793104e-02
 39  9.31508888162289939e-01
 40  9.59354534726610031e-01
 41 -6.79012872719654409e-02
 42  5.45783243569180065e-02
 43  7.71008241993369072e-16
 Sym= A
 Ene=  1.13745254690218345e+00
 Spin= Alpha
 Occup=  0.00000000000000000e+00
  1  3.64213422657793436e-03
  2  9.42093807923534421e-03
  3 -3.57821309186651462e-02
  4 -8.65914390804041062e-02
  5  9.18843517554266409e-01
  6  8.00471989228627029e-02
  7 -1.68484990339925439e-08
  8  1.12465861619170976e-15
  9  1.46840212340007853e-01
 10  1.54993277923388536e-07
 11  7.57496278885118425e-16
 12  5.73193730411607150e-01
 13  2.59325937290225316e-07
 14  2.27383757533346327e-15
 15 -9.09998689424145780e-05
 16 -2.18656943943215549e-18
 17 -7.79313620380874051e-16
 18 -1.45763864135658328e-02
 19  1.07661762013471722e-09
 20  1.44839880032963275e-01
 21 -8.03667951105755280e-15
 22 -3.94206260586349568e-14
 23 -5.11399213107914030e-01
 24  2.33439025474850973e-07
 25 -2.50095102784359482e-17
 26 -3.34628270981938329e-03
 27 -2.54974417800365370e-09
 28 -4.40703325263142142e-17
 29  8.21923505789731524e-16
 30 -7.53055197851074023e-03
 31  3.13846156442095043e-08
 32  3.58841876039485141e-02
 33 -5.80171032672950227e-01
 34 -5.22144214279967739e-02
 35 -3.03435085471447930e-01
 36  2.94759351012232440e-01
 37 -3.50470512402009453e-14
 38  3.58841891417771564e-02
 39 -5.80170183825561625e-01
 40 -5.22142488157098100e-02
 41 -3.03435411481457806e-01
 42 -2.94759223691585581e-01
 43  2.68221052348423098e-14
 Sym= A
 Ene=  1.15665993952800172e+00
 Spin= Alpha
 Occup=  0.00000000000000000e+00
  1  1.82517824582291917e-16
  2  3.81381474796735618e-16
  3  6.65929494862058350e-16
  4 -1.41392794268868336e-14
  5  7.35344219907921527e-14
  6  4.99760557203217548e-15
  7  4.33953299491341678e-16
  8  2.39602987213018679e-08
  9  1.00981049476910480e-14
 10 -4.08442283108070601e-15
 11 -1.44295412467828283e-07
 12  4.27168731847385846e-14
 13 -4.63638879526411991e-15
 14  1.91238379775019139e-07
 15  5.17645585555993809e-18
 16  2.68834321740921833e-09
 17  1.14100368276448434e-02
 18 -1.26969220475548066e-15
 19  1.11734323261605370e-16
 20  1.26708878851578967e-14
 21 -2.60809897356800679e-07
 22  5.46368958962380358e-01
 23 -3.76011907834444339e-14
 24 -4.00367502980266695e-15
 25  1.51237796319227291e-08
 26 -1.13012452313967753e-16
 27  4.86445971427755686e-16
 28 -3.75904477204008033e-09
 29 -1.00238884367627526e-02
 30 -6.81723040139983966e-16
 31 -9.39322394351262840e-17
 32  1.61091355172951870e-15
 33 -3.46978112311482512e-14
 34 -4.31532066487388871e-15
 35 -2.41123032188977148e-14
 36  1.82170292395505278e-14
 37  4.19633152736169357e-01
 38  5.05981481011955384e-15
 39 -5.02442681938258040e-14
 40 -5.73583578326497667e-15
 41 -2.02226863780554708e-14
 42 -2.30492656309930133e-14
 43 -4.19633566779029687e-01
 Sym= A
 Ene=  1.26441547220397776e+00
 Spin= Alpha
 Occup=  0.00000000000000000e+00
  1  1.63107733717276635e-16
  2  5.54790841546679478e-16
  3 -9.95395704424854675e-16
  4 -7.80581309411598429e-15
  5  2.05977341526948226e-14
  6 -5.52995581183613528e-16
  7 -1.62815273102092361e-15
  8 -9.66002829773772859e-02
  9  4.27075153381358608e-16
 10  6.72884573520287496e-15
 11 -4.79872221797144963e-02
 12  1.05416228821311501e-14
 13  5.02052583920268360e-15
 14 -2.12058002455775829e-01
 15 -2.95145526405166724e-17
 16  3.95994561261060231e-03
 17  9.33529005125771772e-09
 18 -2.20493351720923013e-16
 19 -6.92685068534134496e-17
 20  2.06381453751517046e-15
 21  6.80557788936268393e-01
 22  1.85347510753897329e-07
 23 -5.16627286550431612e-15
 24  6.33069677868616152e-15
 25  4.36263261291332076e-03
 26  2.85887456551808974e-16
 27 -2.48700419870224642e-16
 28  1.32879790517341570e-02
 29 -2.44430702198128700e-08
 30  7.72578804205674943e-17
 31  2.39842914796285335e-16
 32  2.45345031010985243e-15
 33 -1.99758082336585974e-14
 34 -3.06302574933143543e-16
 35 -2.52599215192202909e-15
 36  2.61236388319945674e-15
 37  3.74558561539604262e-01
 38 -3.46702675399846461e-15
 39  7.01229005990371025e-15
 40 -6.31588958491699629e-15
 41 -8.45758753297843732e-15
 42 -1.12448112373091871e-15
 43  3.74558232936435920e-01
 Sym= A
 Ene=  1.50131704993368031e+00
 Spin= Alpha
 Occup=  0.00000000000000000e+00
  1  1.71056628292282842e-08
  2  6.84603143493881666e-08
  3 -9.67135101621324058e-07
  4  3.58243395870959882e-06
  5  2.69412941808522248e-06
  6 -2.31146156044349594e-07
  7 -1.13596880270818754e-01
  8 -7.52666111489010626e-16
  9  1.84927263561906649e-06
 10  9.25329094080399872e-01
 11  1.26005210346292331e-15
 12  1.34302192268823905e-06
 13  9.69607357944648252e-01
 14 -1.33479583558334260e-15
 15 -3.94724273012766506e-09
 16 -1.57579079266369373e-16
 17  1.67580502944326262e-16
 18 -2.00847133728812762e-10
 19 -6.07230417884281528e-03
 20 -1.16054273526194013e-06
 21 -6.41625060185621572e-15
 22  2.07366232368098456e-15
 23 -1.87188491982655948e-07
 24  1.21789747149817873e+00
 25 -5.16119917109434764e-17
 26 -8.96426588293737604e-08
 27 -5.40235770086144318e-02
 28 -1.70831597806396672e-16
 29 -2.35732787991795933e-17
 30 -1.63817605792874840e-07
 31  3.78100505711935209e-02
 32  3.58728220109340579e-01
 33 -2.18660875675135502e+00
 34  5.13023072534561031e-01
 35  4.22162653051168568e-01
 36  1.77093607697658639e-01
 37  3.12128107381257502e-16
 38 -3.58727678774270475e-01
 39  2.18660103300061470e+00
 40 -5.13022536254742700e-01
 41 -4.22161145561418372e-01
 42  1.77091807013946334e-01
 43 -1.88828246847762895e-15
 Sym= A
 Ene=  1.60453878621315238e+00
 Spin= Alpha
 Occup=  0.00000000000000000e+00
  1 -1.51877398039372610e-02
  2 -5.08742000623325155e-02
  3  3.90260925943547277e-01
  4 -6.88414676565715089e-01
  5 -1.85665422068808206e+00
  6  9.26708328197217435e-02
  7  3.05439539517831762e-08
  8 -1.69655067067329141e-15
  9 -5.06364245216169517e-01
 10 -8.96723254475827637e-07
 11  2.00308785847835828e-15
 12 -9.45423467215766977e-01
 13  5.21728147020736692e-07
 14 -1.36682264221900805e-15
 15 -1.97964514679813087e-03
 16  1.61625259344296070e-16
 17 -5.79228144802024150e-17
 18  2.78299780678696986e-03
 19  3.96503823279073406e-09
 20  1.12155933759901383e+00
 21 -1.33242887717142587e-15
 22  4.63967800884253344e-16
 23  2.91715481064860394e-01
 24  1.85498652288727506e-07
 25  1.30065455719659479e-16
 26  3.65684507029426092e-02
 27  3.29050036367094190e-08
 28 -3.71244379239019467e-17
 29 -2.05041679413617594e-16
 30  5.43875795490161573e-02
 31 -3.19271367377877288e-08
 32 -3.29789111343385399e-01
 33  2.06365460489066521e+00
 34 -1.87130764032819363e-01
 35 -1.34793708865623918e-01
 36 -2.24090032679721357e-01
 37 -9.47695787173528500e-16
 38 -3.29789796871487462e-01
 39  2.06365430816382478e+00
 40 -1.87131233224794108e-01
 41 -1.34793666254250794e-01
 42  2.24088565067951551e-01
 43  2.35625420703711457e-15
 Sym= A
 Ene=  1.72245826428557725e+00
 Spin= Alpha
 Occup=  0.00000000000000000e+00
  1 -2.91065839808191319e-09
  2 -1.82928516210668648e-09
  3 -2.32712459405641984e-07
  4  1.36412501313106224e-06
  5 -7.98321419187075091e-07
  6 -1.15526273662775219e-07
  7 -1.67304937835216522e-01
  8  2.63819116737467995e-16
  9  8.30494027383388887e-07
 10  3.12689663764524672e-01
 11 -6.53901462588069386e-16
 12 -4.94219724540619459e-07
 13 -3.79528583714322354e-01
 14  6.80090277278636284e-16
 15 -9.43931793209722143e-10
 16 -2.88903774680162244e-16
 17 -3.87177362055350311e-16
 18 -1.88776063380057601e-08
 19 -1.17453636036396053e-02
 20  4.63445366373588708e-07
 21  1.43015653815409150e-15
 22 -3.10771867238332006e-16
 23 -3.04183624120516091e-08
 24  4.65656512540836010e-01
 25 -1.19005781729231249e-17
 26 -3.54802695615377995e-08
 27 -2.00172266455353083e-02
 28 -7.26125869548946869e-17
 29  3.24324076206307034e-16
 30 -3.07451000512495172e-08
 31  2.13304539099276845e-02
 32  1.18147765414154199e-01
 33 -4.65981146607435615e-01
 34  3.71430149549557997e-01
 35 -5.25424946352309741e-01
 36  5.76284669256750148e-01
 37 -3.78748370336662108e-17
 38 -1.18147766147778457e-01
 39  4.65980713371144883e-01
 40 -3.71429798114357057e-01
 41  5.25425742337859880e-01
 42  5.76284035095472991e-01
 43 -1.88444825480439169e-15
 Sym= A
 Ene=  1.96337721390165498e+00
 Spin= Alpha
 Occup=  0.00000000000000000e+00
  1  1.45513104840478708e-02
  2  6.30488427944892044e-02
  3 -8.20025874489579198e-01
  4  2.60659297341949836e+00
  5 -1.06925635739290106e-01
  6 -4.31799414919633973e-01
  7 -9.05245826630762813e-08
  8 -2.63207531718344434e-15
  9  1.37096073299811549e+00
 10  1.86671000993629672e-06
 11  3.16935285062571106e-15
 12 -6.60350482613774326e-02
 13 -3.64441959783029720e-07
 14 -2.28587620694993545e-15
 15  5.64805743165977710e-03
 16 -1.47258163213618599e-16
 17  7.62843497382495888e-17
 18  1.74137525912738478e-03
 19  2.99259502603160119e-08
 20  1.02626577514025305e-01
 21 -1.65353018719726170e-16
 22  4.14254061089437376e-15
 23 -2.56103916400980569e-01
 24 -2.40519649718419395e-07
 25  4.07730079555631318e-17
 26 -6.84304109930104210e-02
 27 -4.52600392350678280e-08
 28  1.30801082472572788e-16
 29  2.54951416974013997e-16
 30 -1.48074733054159496e-01
 31  5.35832359669523146e-08
 32  6.42785518769533160e-01
 33 -1.94238487053408337e+00
 34  5.08105807391059150e-01
 35  6.16356046006855895e-01
 36  5.58424579663384102e-01
 37 -2.41126471559224955e-15
 38  6.42786427168149932e-01
 39 -1.94238324510391491e+00
 40  5.08105604637255182e-01
 41  6.16354023933725070e-01
 42 -5.58423277655795469e-01
 43  4.83735711011953127e-15
 Sym= A
 Ene=  2.02356571801707652e+00
 Spin= Alpha
 Occup=  0.00000000000000000e+00
  1  3.85718645428746081e-16
  2  8.92354423176409954e-16
  3 -2.88436555873041118e-15
  4 -5.02488211338043792e-15
  5 -7.24224690434913124e-16
  6 -4.09401180699608325e-15
  7 -7.63462364245396990e-15
  8 -3.33523019119273179e-01
  9  4.85802060863815657e-16
 10  2.35027311240793620e-14
 11  1.79077101231646996e-01
 12 -2.05118707588087467e-15
 13 -7.04259508894965359e-15
 14 -4.94455287925800124e-01
 15 -1.64819275242835586e-16
 16  6.61878494604524643e-03
 17 -2.06196594842016785e-08
 18 -6.59574842216316106e-17
 19 -5.57381581288473543e-16
 20 -4.71584655020187752e-16
 21 -8.69781456131535791e-01
 22  3.50702232918676404e-06
 23 -1.05900726085242093e-15
 24 -1.84326636333998731e-15
 25 -4.77560292235071349e-03
 26  2.49024415450158886e-16
 27 -1.04494282618512433e-15
 28 -1.45527504853947883e-02
 29 -5.48554757476319498e-08
 30  7.87649931423054884e-16
 31  3.14730625253038844e-16
 32  2.43572771491879925e-15
 33 -8.23253374096196835e-15
 34  4.79444978681247545e-15
 35  3.51560037735231311e-15
 36  3.84041808748096177e-15
 37  7.54438988623189033e-01
 38 -6.05287760874989399e-15
 39  2.04116998382156613e-14
 40 -7.45462609295739469e-15
 41 -7.81471929557133905e-15
 42  1.20084518536361251e-14
 43  7.54443763904955045e-01
 Sym= A
 Ene=  2.07392264165910767e+00
 Spin= Alpha
 Occup=  0.00000000000000000e+00
  1  2.78325664724329914e-16