[Molden Format]
[Atoms] (AU)
C    1    6         0.000000021757       0.000000020110       0.000000000117
O    2    8         0.000000021757       0.000000020110       2.192037283393
O    3    8        -0.000000038081      -0.000000035197      -2.192037283480
[GTO]
  1 0
 s    6  1.00
    13575.3496820000         0.0002224581
     2035.2333680000         0.0017232738
      463.2256235900         0.0089255715
      131.2001959800         0.0357279845
       42.8530158910         0.1107625993
       15.5841857660         0.2429562763
 s    2  1.00
        6.2067138508         0.4144026345
        2.5764896527         0.2374496866
 s    1  1.00
        0.5769633942         1.0000000000
 s    1  1.00
        0.2297283136         1.0000000000
 s    1  1.00
        0.0951644400         1.0000000000
 p    4  1.00
       34.6972322440         0.0053333658
        7.9582622826         0.0358641091
        2.3780826883         0.1421587333
        0.8143320818         0.3427047185
 p    1  1.00
        0.2888754725         1.0000000000
 p    1  1.00
        0.1005682367         1.0000000000
 d    1  1.00
        1.0970000000         1.0000000000
 d    1  1.00
        0.3180000000         1.0000000000
 f    1  1.00
        0.7610000000         1.0000000000

  2 0
 s    6  1.00
    27032.3826310000         0.0002172630
     4052.3871392000         0.0016838662
      922.3272271000         0.0087395616
      261.2407098900         0.0352399688
       85.3546413510         0.1115351912
       31.0350352450         0.2558895396
 s    2  1.00
       12.2608607280         0.3976873090
        4.9987076005         0.2462784943
 s    1  1.00
        1.1703108158         1.0000000000
 s    1  1.00
        0.4647474099         1.0000000000
 s    1  1.00
        0.1850453636         1.0000000000
 p    4  1.00
       63.2749548010         0.0060685103
       14.6270493790         0.0419125758
        4.4501223456         0.1615384109
        1.5275799647         0.3570695131
 p    1  1.00
        0.5293511794         1.0000000000
 p    1  1.00
        0.1747842127         1.0000000000
 d    1  1.00
        2.3140000000         1.0000000000
 d    1  1.00
        0.6450000000         1.0000000000
 f    1  1.00
        1.4280000000         1.0000000000

  3 0
 s    6  1.00
    27032.3826310000         0.0002172630
     4052.3871392000         0.0016838662
      922.3272271000         0.0087395616
      261.2407098900         0.0352399688
       85.3546413510         0.1115351912
       31.0350352450         0.2558895396
 s    2  1.00
       12.2608607280         0.3976873090
        4.9987076005         0.2462784943
 s    1  1.00
        1.1703108158         1.0000000000
 s    1  1.00
        0.4647474099         1.0000000000
 s    1  1.00
        0.1850453636         1.0000000000
 p    4  1.00
       63.2749548010         0.0060685103
       14.6270493790         0.0419125758
        4.4501223456         0.1615384109
        1.5275799647         0.3570695131
 p    1  1.00
        0.5293511794         1.0000000000
 p    1  1.00
        0.1747842127         1.0000000000
 d    1  1.00
        2.3140000000         1.0000000000
 d    1  1.00
        0.6450000000         1.0000000000
 f    1  1.00
        1.4280000000         1.0000000000

[5D]
[9G]

[MO]
 Sym= A
 Ene= -1.92865570288466373e+01
 Spin= Alpha
 Occup=  1.00000000000000000e+00
  1  1.09231502857316335e-10
  2 -7.71581997881044051e-10
  3 -1.15696714934435364e-08
  4  9.81362311883407440e-08
  5 -4.05953234153543791e-09
  6  1.96893071568788576e-11
  7  1.81975650600211194e-11
  8  1.44253841254296587e-03
  9 -5.82323758988114275e-12
 10 -5.38222560567058772e-12
 11 -4.26512834553375176e-04
 12 -8.02076718320945241e-11
 13 -7.41344159502369145e-11
 14 -5.87649687461336192e-03
 15  3.37604957453830046e-09
 16 -1.78788484473168359e-11
 17 -1.65252272619173230e-11
 18  2.08086504078250972e-16
 19 -7.60243416386185673e-16
 20  4.21265073378454791e-08
 21 -1.36663001588758923e-10
 22 -1.26315064176692141e-10
 23  5.62543532506550801e-15
 24  7.85838606036846253e-16
 25 -1.88139139504622820e-03
 26 -6.29014348596958913e-11
 27 -5.81382708992541991e-11
 28 -7.34465945237786364e-16
 29 -1.02342273820068240e-16
 30  1.98241732505307926e-16
 31  1.26161716635386951e-16
 32  3.07813769362339396e-01
 33  4.51996169429769445e-01
 34  2.55285175070126963e-02
 35 -1.63596492959973867e-02
 36  1.15928858940189863e-02
 37 -2.68318055089462148e-12
 38 -2.48067085470202323e-12
 39 -1.93259572675729243e-03
 40  7.49523415204982543e-11
 41  6.92777710756352284e-11
 42  1.48994055538384821e-03
 43  6.30227145567131886e-11
 44  5.82500819267066421e-11
 45 -1.21319355334174568e-03
 46  4.56422572752747792e-04
 47  5.43097339312573872e-12
 48  5.01971486163103203e-12
 49  9.83618264162346937e-15
 50 -2.79293574518510804e-16
 51 -6.16399504155438972e-04
 52 -7.08481827382321658e-11
 53 -6.54837637496579537e-11
 54 -8.78791267896250272e-15
 55 -9.99621440662106930e-16
 56  2.16882189107722945e-05
 57  1.86799662499211871e-11
 58  1.72661005550286006e-11
 59  1.40710329777876621e-15
 60  4.06914316107790542e-17
 61  1.13324573583098174e-15
 62 -1.80806231408095576e-15
 63 -3.07812305980935785e-01
 64 -4.51994021014777425e-01
 65 -2.55283850741347719e-02
 66  1.63594858726482523e-02
 67 -1.15928949468615834e-02
 68 -5.00735440025331617e-11
 69 -4.62801215858448522e-11
 70 -1.93258496179513246e-03
 71 -3.42795020031199575e-11
 72 -3.16857726494121429e-11
 73  1.48988793724541763e-03
 74 -9.61425515296262941e-11
 75 -8.88606155536934056e-11
 76 -1.21320233253955950e-03
 77 -4.56421667998481168e-04
 78 -1.61494545535835635e-11
 79 -1.49265207957933715e-11
 80  6.00281397523251230e-15
 81  6.39289117888923949e-16
 82  6.16390218357632728e-04
 83 -4.17036630745107011e-11
 84 -3.85456958640259528e-11
 85 -9.30362157050574663e-15
 86  8.38559296576926926e-16
 87  2.16870064725963483e-05
 88 -1.72297280256769621e-11
 89 -1.59251880365817568e-11
 90 -1.26546115777619898e-16
 91  5.01202997028194845e-17
 92 -1.65299240617741043e-15
 93  9.92061732773590842e-16
 Sym= A
 Ene= -1.92865402400165422e+01
 Spin= Alpha
 Occup=  1.00000000000000000e+00
  1 -4.59084147065519306e-05
  2  3.24368906237153579e-04
  3  4.86536622497823687e-03
  4 -4.12658063311583459e-02
  5  1.71020325690852981e-03
  6  2.37398203918448231e-11
  7  2.19429676339051716e-11
  8  3.42779970277608969e-09
  9  2.15310311952673562e-10
 10  1.99008303121021024e-10
 11 -1.08443658382862976e-09
 12 -6.58158941297425360e-11
 13 -6.08337519014107008e-11
 14 -1.39908019863588429e-08
 15 -1.41980469192986149e-03
 16 -3.35654565034151099e-11
 17 -3.10237226736165058e-11
 18 -8.75007170219385481e-16
 19 -2.33578571531172215e-16
 20 -1.77140311335093129e-02
 21 -4.18773926778965182e-10
 22 -3.87062785792502879e-10
 23  1.21382863068523091e-15
 24 -6.09544722756239750e-16
 25 -4.47774128755393681e-09
 26 -4.50148553123983029e-11
 27 -4.16060658115909292e-11
 28 -3.17874904779166752e-15
 29  2.09738998241383844e-16
 30  5.98551890294352588e-16
 31 -6.86756672627381560e-16
 32 -3.07823119804068457e-01
 33 -4.51921253481642804e-01
 34 -2.78543674268571621e-02
 35  3.43658954661274912e-02
 36  1.89881027178448827e-03
 37 -2.75839075452137023e-11
 38 -2.54934163579525663e-11
 39  2.26389017309649131e-03
 40  1.61956613269619319e-10
 41  1.49690159697091026e-10
 42 -1.10632989975861223e-02
 43  9.01859378087206696e-11
 44  8.33585098176127911e-11
 45 -1.84481981654985739e-03
 46 -1.90291824379827055e-04
 47  1.65229611342138719e-11
 48  1.52719345865075870e-11
 49 -9.18548124290599090e-15
 50  1.09037203613085773e-16
 51  1.95229463498064752e-03
 52 -1.20132266945048582e-10
 53 -1.11034834573769142e-10
 54  9.82833584815836540e-15
 55  4.36926019291380999e-16
 56 -2.54904556821736910e-04
 57  2.05601112278019451e-11
 58  1.90033251108039958e-11
 59 -1.34528347112134764e-15
 60 -3.37755843958848655e-16
 61 -9.94854948836650336e-16
 62  1.59571338168905220e-15
 63 -3.07824583132155660e-01
 64 -4.51923402245919592e-01
 65 -2.78544887880977157e-02
 66  3.43659732125481815e-02
 67  1.89875504046191032e-03
 68 -8.93839225682719772e-11
 69 -8.26144706359893378e-11
 70 -2.26389935898255179e-03
 71  4.63961089858591783e-10
 72  4.28829041741675382e-10
 73  1.10633060444703425e-02
 74  1.40547130376805306e-10
 75  1.29905137668590364e-10
 76  1.84481401464864207e-03
 77 -1.90293994335314812e-04
 78 -2.55209917494108585e-11
 79 -2.35887542461976406e-11
 80  6.33237467440052008e-15
 81  7.53568480727978261e-17
 82  1.95229755617264220e-03
 83  2.12439514246846524e-10
 84  1.96353245094261837e-10
 85 -7.20298348684528323e-15
 86  1.16775789985766425e-16
 87  2.54904659549475064e-04
 88  3.76059677045612955e-11
 89  3.47573206710717031e-11
 90 -4.51397618279448940e-16
 91  2.20590781602078392e-16
 92 -1.28715488050045349e-15
 93  1.36989680017059711e-15
 Sym= A
 Ene= -1.04442684326506043e+01
 Spin= Alpha
 Occup=  1.00000000000000000e+00
  1 -4.67022736232030555e-01
  2 -6.07229059028919216e-01
  3 -4.44602599313899949e-02
  4  1.40232212844138594e-02
  5 -3.02655938447114227e-03
  6  8.14743359829003282e-11
  7  7.53057068245966287e-11
  8 -2.29780608540536588e-12
  9  2.10926704604288964e-10
 10  1.94956874857327917e-10
 11 -1.52071344973613681e-10
 12 -9.12082365208016286e-11
 13 -8.43021004824453694e-11
 14 -1.01241839641667342e-10
 15 -6.30893740912184722e-03
 16 -1.49148748158049914e-10
 17 -1.37854627133794923e-10
 18 -6.16836133344240202e-14
 19 -3.03007027794287874e-16
 20 -2.32114876832204779e-03
 21 -5.48733733605020959e-11
 22 -5.07197744620416796e-11
 23  1.52362784863975494e-14
 24 -6.87937515189757529e-17
 25 -1.15475879873443856e-11
 26  1.13537931842610521e-10
 27  1.04942139186099458e-10
 28 -7.78870667908987393e-15
 29 -3.43657735046242310e-17
 30  6.04837535903135131e-16
 31 -7.66390078487061124e-16
 32  1.19257115638692334e-04
 33  4.12429511060676544e-04
 34 -4.01552031481420754e-03
 35  1.06910444821865860e-02
 36 -2.09395650876744973e-03
 37  1.15400409347502694e-12
 38  1.06675642666091339e-12
 39  1.01573322722093738e-03
 40 -4.85245138480918339e-11
 41 -4.48507342689586124e-11
 42 -8.33947561259890807e-03
 43  2.29517060823059652e-11
 44  2.12136825237559001e-11
 45  1.84810344941000121e-03
 46 -5.90874174862483022e-05
 47  3.50240703675430326e-12
 48  3.23720369017702272e-12
 49 -8.77413545859142047e-16
 50  3.04510632345875094e-16
 51  4.45775055423344897e-03
 52  3.08800909379008907e-11
 53  2.85423681077846414e-11
 54 -5.92651281576683001e-15
 55 -3.22656394456276644e-16
 56 -1.24901982356881132e-03
 57 -2.65414262266093693e-12
 58 -2.45345631602156699e-12
 59 -5.85361702523067968e-16
 60 -2.04216963279952223e-16
 61  4.37690265375407979e-16
 62  2.44925527985282168e-16
 63  1.19257115306643411e-04
 64  4.12429515171413034e-04
 65 -4.01552034136046319e-03
 66  1.06910445048649938e-02
 67 -2.09395690289702289e-03
 68 -2.65739467036757891e-11
 69 -2.45615998773641216e-11
 70 -1.01573322156487756e-03
 71  1.79127251118881624e-10
 72  1.65562039713060955e-10
 73  8.33947552738574516e-03
 74 -2.74980233334025369e-11
 75 -2.54169210188197298e-11
 76 -1.84810353114319434e-03
 77 -5.90874183770878351e-05
 78 -6.29657117379603859e-12
 79 -5.81935419090491757e-12
 80 -5.68163406803071884e-16
 81  1.22705084349429442e-16
 82  4.45775053507631389e-03
 83  1.79889338217134398e-10
 84  1.66266257389253401e-10
 85 -3.95068358239036478e-16
 86  1.01931349296620780e-16
 87  1.24901982449025155e-03
 88  8.08633566395762607e-11
 89  7.47398352467250034e-11
 90  1.77568516997840705e-15
 91  3.71534494941704829e-16
 92  1.42368085966305831e-16
 93 -2.14562005942542757e-16
 Sym= A
 Ene= -1.25256049196901587e+00
 Spin= Alpha
 Occup=  1.00000000000000000e+00
  1 -7.64099709825959844e-02
  2 -1.59928194452254896e-01
  3  2.71122280899552703e-01
  4  1.19602793907194110e-01
  5  9.19251111045014252e-03
  6 -2.88126613944541189e-09
  7 -2.66308823798096108e-09
  8  9.20239406556160778e-10
  9 -1.12128566802312365e-09
 10 -1.03638246221924358e-09
 11  2.99038585497451569e-10
 12  1.55203331696137169e-10
 13  1.43452750707274583e-10
 14  1.13908445469966411e-10
 15  3.39189478790733467e-02
 16  8.01869442995468977e-10
 17  7.41151329978310083e-10
 18  2.74691942388695401e-13
 19  4.51852164897895308e-16
 20  3.81387223776360855e-03
 21  9.01608126518783633e-11
 22  8.33373142843924304e-11
 23 -3.18778817256194820e-13
 24  3.13263120032391828e-16
 25  5.09089336208356910e-11
 26 -6.48707832935119065e-10
 27 -5.99587807003186947e-10
 28  2.85958266565984018e-13
 29  3.91949122891857878e-16
 30 -3.54753987140134561e-15
 31  3.56017272351381675e-15
 32 -6.18062920175419112e-02
 33 -1.44853059919523713e-01
 34  2.14265251462207290e-01
 35  2.59835370063340232e-01
 36  8.26860480169363810e-02
 37 -2.30718823465187666e-10
 38 -2.13245782495499716e-10
 39 -9.59627844810542613e-02
 40  1.83057668023609477e-10
 41  1.69199014557549648e-10
 42 -6.71547933659847884e-02
 43 -6.10467521793587590e-11
 44 -5.64264855866741588e-11
 45 -9.74791750520904131e-03
 46  5.76808794107189389e-03
 47  5.01540132448928279e-12
 48  4.63520499349529475e-12
 49  1.48957781656607925e-13
 50  3.48276053004355047e-16
 51  9.07335861465558523e-03
 52 -2.49956611713672017e-10
 53 -2.31029896785073805e-10
 54  4.50577360451355469e-13
 55 -7.38710196154682717e-16
 56 -1.46607418662963334e-03
 57  5.53822215296712593e-11
 58  5.11886850403167087e-11
 59 -6.11806931055161091e-14
 60  1.61303606500260003e-16
 61 -3.45126010177253572e-16
 62  2.63349860589329736e-16
 63 -6.18062915508100635e-02
 64 -1.44853058834028131e-01
 65  2.14265249921430617e-01
 66  2.59835368013183965e-01
 67  8.26860476240002945e-02
 68  2.38887697041300350e-09
 69  2.20799113546554897e-09
 70  9.59627837807693618e-02
 71  2.01624864941879801e-09
 72  1.86357995219128982e-09
 73  6.71547929098441632e-02
 74  2.05051266560595448e-10
 75  1.89525657628522807e-10
 76  9.74791741599679434e-03
 77  5.76808789812774739e-03
 78  2.67709218375208298e-10
 79  2.47437871167975974e-10
 80 -1.08833477624070980e-13
 81 -4.41049651286983822e-16
 82  9.07335854672629803e-03
 83  6.78957589347238503e-10
 84  6.27548397640853881e-10
 85 -2.54152387197624135e-13
 86  1.08639187698271782e-15
 87  1.46607416807598622e-03
 88  1.53413762452495121e-10
 89  1.41797289239484035e-10
 90  5.97422571990439009e-15
 91  1.53384418383487416e-16
 92 -6.26483885691064306e-16
 93  2.72425582800288510e-16
 Sym= A
 Ene= -1.21042714141065666e+00
 Spin= Alpha
 Occup=  1.00000000000000000e+00
  1 -2.59180317515150636e-10
  2 -5.40924368179618722e-10
  3 -1.26154525883494799e-09
  4  1.24441373834069434e-08
  5  1.43818589430112522e-09
  6 -3.49327792694899750e-09
  7 -3.22876164146349611e-09
  8 -2.55936338751285242e-01
  9 -1.85724897587600894e-09
 10 -1.71661957262869599e-09
 11 -1.36072106818432986e-01
 12 -8.37823489419896421e-11
 13 -7.74355169176142681e-11
 14 -6.13822746324401303e-03
 15  3.87213313208205231e-10
 16  7.56989874581808347e-10
 17  6.99668645838892649e-10
 18 -1.11550038903309863e-13
 19  8.83471461812243497e-17
 20  4.29562049914725274e-09
 21  2.93975248279901426e-10
 22  2.71716296150315779e-10
 23 -5.23072890827185847e-13
 24 -6.44078272310560596e-16
 25 -1.88320806832480356e-02
 26 -6.29614227287232110e-10
 27 -5.81940896521087968e-10
 28  1.49937765012063799e-13
 29  1.64667023872346400e-16
 30  7.41225139532219341e-17
 31 -1.95583636584489696e-16
 32  6.76422439918460128e-02
 33  1.58572172733304900e-01
 34 -2.35972434986767704e-01
 35 -2.61474034562248880e-01
 36 -7.12448706780197949e-02
 37 -3.23025450454247492e-10
 38 -2.98568475788932157e-10
 39  9.83948659831634792e-02
 40  4.75453114117706843e-11
 41  4.39451827167024522e-11
 42  5.30578886344830053e-02
 43 -1.94223996593265675e-13
 44 -1.82098293569633178e-13
 45 -9.21088537419489147e-05
 46 -6.11828749583761926e-03
 47  3.58673104975601820e-11
 48  3.31517425546736441e-11
 49 -1.69997470044809441e-13
 50 -9.27742743903718139e-17
 51 -6.92588342853127110e-03
 52 -1.45735993936452606e-10
 53 -1.34701321525394407e-10
 54 -4.17495416860303386e-13
 55  9.03846149509507773e-16
 56  2.28186933253232823e-03
 57  3.56986483939059200e-11
 58  3.29961595613694137e-11
 59  9.68511029380619318e-14
 60 -1.12865662233486489e-16
 61  8.64616496221052824e-16
 62 -1.89018081141897473e-16
 63 -6.76422444153779029e-02
 64 -1.58572173810718864e-01
 65  2.35972437968387405e-01
 66  2.61474027873866643e-01
 67  7.12448639337545792e-02
 68  3.00901349781398417e-09
 69  2.78117001282201358e-09
 70  9.83948669534390474e-02
 71  1.40082749308557311e-09
 72  1.29475920773537075e-09
 73  5.30578848791087368e-02
 74 -2.31694185884662423e-12
 75 -2.14141372805504699e-12
 76 -9.21116146681326897e-05
 77  6.11828754655598973e-03
 78  3.25149585501306266e-10
 79  3.00528664869311247e-10
 80 -1.23477655868394840e-13
 81 -6.17966475112199297e-16
 82  6.92588280481727051e-03
 83  1.81730325809550113e-10
 84  1.67971465328039774e-10
 85 -1.77658625848356856e-13
 86  1.27407635641857075e-15
 87  2.28186930657676458e-03
 88  1.16881643011305685e-10
 89  1.08031307888600258e-10
 90  1.57957451286510325e-14
 91  1.93555070129222944e-16
 92 -5.38188876141115383e-16
 93  4.50126550164016813e-16
 Sym= A
 Ene= -6.43700938240798326e-01
 Spin= Alpha
 Occup=  1.00000000000000000e+00
  1  6.64060773949496641e-02
  2  1.44124950070170843e-01
  3 -2.65015825545454498e-01
  4 -2.52400072351347093e-01
  5 -1.91547288817000942e-03
  6  5.07668630217255641e-10
  7  4.69215794171896298e-10
  8 -2.71403846379232556e-10
  9 -1.40115047058714553e-11
 10 -1.29578631639045188e-11
 11  4.09896341349804317e-09
 12 -9.00440568440008813e-10
 13 -8.32256870866773916e-10
 14  1.64928541028250206e-09
 15 -1.65327135989007633e-02
 16 -3.90845231747371480e-10
 17 -3.61250125918529690e-10
 18 -2.50677294508349634e-13
 19 -7.99088642340418450e-16
 20  4.22686746462615746e-03
 21  9.99252752153896151e-11
 22  9.23608855522539320e-11
 23  4.69230613508884623e-14
 24 -1.26862679032677548e-16
 25  3.33655575572747817e-10
 26  3.86821063131710639e-10
 27  3.57529883289787395e-10
 28 -2.53837700086614698e-13
 29 -3.26486820350020578e-17
 30  3.92153999613699491e-15
 31 -3.89030733108534835e-15
 32 -4.27973775303916795e-02
 33 -1.01616918517205501e-01
 34  1.53297652513261051e-01
 35  2.34813463605779371e-01
 36  1.83965791843384463e-01
 37  2.77978181500998975e-11
 38  2.56888157863683919e-11
 39  2.50115235198079933e-01
 40 -2.84836319502941655e-10
 41 -2.63271933975908731e-10
 42  1.74167916391081867e-01
 43  2.75119749324388809e-10
 44  2.54281477394759300e-10
 45  8.68950803919418674e-02
 46 -7.20066997217125131e-03
 47  1.26463455597322726e-11
 48  1.16880977147274638e-11
 49  1.18734688932152532e-13
 50  5.12542736820281408e-17
 51 -1.00646362627842753e-02
 52  1.60852128769351543e-10
 53  1.48674881857828051e-10
 54  3.73465458692006730e-13
 55 -1.07029948451833253e-15
 56  1.43125948310935205e-03
 57 -5.54917249539573962e-11
 58 -5.12896806329792980e-11
 59  2.08608777361131024e-13
 60 -3.65223459046101569e-16
 61 -4.19429333724925539e-15
 62  4.87044948221507269e-15
 63 -4.27973774592529319e-02
 64 -1.01616918356687819e-01
 65  1.53297652116733990e-01
 66  2.34813464681443346e-01
 67  1.83965799099547078e-01
 68 -6.79985713594428528e-09
 69 -6.28496540803390923e-09
 70 -2.50115234516780527e-01
 71 -5.03927958164973541e-09
 72 -4.65769971636533959e-09
 73 -1.74167913617469111e-01
 74 -2.09694855068947059e-09
 75 -1.93816412534655510e-09
 76 -8.68950777900991123e-02
 77 -7.20066994972658626e-03
 78 -3.53105406819699055e-10
 79 -3.26368601620499449e-10
 80 -9.55081188577378271e-14
 81 -1.00929926781748357e-15
 82 -1.00646355986224300e-02
 83 -6.36726096509336930e-10
 84 -5.88510986066204492e-10
 85 -1.65148815991745227e-13
 86  7.38413067928694076e-16
 87 -1.43125941915944071e-03
 88 -1.51192808400388881e-10
 89 -1.39745552233215121e-10
 90  1.81213839251998235e-13
 91  2.10421144405098486e-16
 92 -4.34005881123853211e-15
 93  5.08127437613306363e-15
 Sym= A
 Ene= -6.00772910437489704e-01
 Spin= Alpha
 Occup=  1.00000000000000000e+00
  1 -6.65503139958205309e-10
  2 -1.42099531386071098e-09
  3  2.77735901113462663e-09
  4  1.25478784844318788e-09
  5  1.79627668697641525e-09
  6  2.96093391734142286e-01
  7 -7.15118268077192494e-06
  8 -4.04108935071730947e-09
  9  2.26800036261075366e-01
 10 -5.47762475732894587e-06
 11 -3.09536956888723588e-09
 12  5.63757007625341824e-02
 13 -1.36157356411192147e-06
 14 -7.69443022602172475e-10
 15  4.11374956626096717e-10
 16  2.36520221729427781e-11
 17 -6.25009726528078127e-16
 18 -3.70081909814395153e-10
 19 -3.42032946751242939e-10
 20  6.76804681987882431e-11
 21  8.49825671503079865e-11
 22 -9.89725436242883336e-16
 23 -3.99544328791474135e-10
 24 -3.69265515215168790e-10
 25 -6.43297465471798096e-10
 26  1.92421312982389223e-02
 27 -4.64731738271011750e-07
 28  4.15273047011686988e-10
 29  3.83809847835900246e-10
 30 -4.50910347388498570e-09
 31  7.15183161978826460e-10
 32 -7.26485908647138839e-11
 33 -1.83399999184428953e-10
 34  3.08353499815559356e-10
 35  9.71621384489892676e-10
 36  1.59722305883306857e-09
 37  2.61029992756423967e-01
 38 -6.30433916227166666e-06
 39  1.45414925235698887e-09
 40  2.04061008196425836e-01
 41 -4.92843673854436031e-06
 42  5.42993636662486893e-10
 43  1.00759885413332084e-01
 44 -2.43353066310385559e-06
 45  1.32861320485282263e-10
 46 -3.62636035090740117e-11
 47 -8.33213003392307278e-03
 48  2.01235777939319888e-07
 49  9.90941419024228738e-12
 50  9.15852635857532453e-12
 51  1.18230767237012786e-11
 52 -1.74923940297936238e-02
 53  4.22472465534700710e-07
 54 -2.66629314502456716e-11
 55 -2.46543514729316307e-11
 56  2.88801829528243778e-11
 57  3.32406162409188376e-03
 58 -8.02820076530728871e-08
 59  2.59208279530464456e-11
 60  2.39640254872822704e-11
 61 -2.54886203186080344e-11
 62  4.08960629552671091e-12
 63 -7.26977533059582437e-11
 64 -1.83516880002344784e-10
 65  3.08530540653615419e-10
 66  9.71922079560649895e-10
 67  1.59757636730242189e-09
 68  2.61029992505697250e-01
 69 -6.30433915130530897e-06
 70 -8.58004856777199977e-09
 71  2.04061008173655439e-01
 72 -4.92843672767719780e-06
 73 -6.11362487347141007e-09
 74  1.00759885133864746e-01
 75 -2.43353065540478561e-06
 76 -2.88346926075613798e-09
 77 -4.30224655193034274e-10
 78  8.33213002329400224e-03
 79 -2.01235777470979410e-07
 80  2.37365126889903878e-10
 81  2.19382491487727861e-10
 82 -8.15239181025928060e-10
 83  1.74923940529011675e-02
 84 -4.22472464981968619e-07
 85  4.50855254979270946e-10
 86  4.16682065978142417e-10
 87 -2.51147076644120630e-10
 88  3.32406162629965288e-03
 89 -8.02820074712579664e-08
 90  1.17555503307303802e-10
 91  1.08641328876571027e-10
 92 -2.59828080189057679e-11
 93  4.08949953308164912e-12
 Sym= A
 Ene= -6.00772910395157678e-01
 Spin= Alpha
 Occup=  1.00000000000000000e+00
  1 -6.15138370372726845e-10
  2 -1.31345578062128724e-09
  3  2.56715911488822550e-09
  4  1.15992081133392051e-09
  5  1.66038415499881156e-09
  6  7.15118268673452528e-06
  7  2.96093391644999593e-01
  8 -3.73639465963973331e-09
  9  5.47762475716157979e-06
 10  2.26800036466858451e-01
 11 -2.86187820048809559e-09
 12  1.36157356415760874e-06
 13  5.63757006605552224e-02
 14 -7.11089165393053040e-10
 15  3.80241177001961062e-10
 16  7.46700244098376398e-16
 17  3.10411521332723381e-11
 18  3.42040538112790189e-10
 19 -3.70074694194098839e-10
 20  6.25953850535197107e-11
 21  2.31699355219719136e-15
 22  7.95211281969646210e-11
 23  3.69273351308018832e-10
 24 -3.99534708028303865e-10
 25 -5.94681988416880048e-10
 26  4.64731736720663259e-07
 27  1.92421313661667766e-02
 28 -3.83809623746752070e-10
 29  4.15273208718170455e-10
 30  7.15182642825212613e-10
 31  4.50918801038720681e-09
 32 -6.72863875838430590e-11
 33 -1.69842434229788733e-10
 34  2.85490552825109478e-10
 35  8.98967155586446334e-10
 36  1.47698728220116211e-09
 37  6.30433915849623583e-06
 38  2.61029992867675920e-01
 39  1.34535367365134534e-09
 40  4.92843672998015841e-06
 41  2.04061008243673264e-01
 42  5.02749602751661412e-10
 43  2.43353066326729017e-06
 44  1.00759885456200529e-01
 45  1.23227613713178460e-10
 46 -3.35557133149947510e-11
 47 -2.01235777901848103e-07
 48 -8.33213003713388113e-03
 49 -9.15842623881786717e-12
 50  9.91063667469427878e-12
 51  1.08767461393052262e-11
 52 -4.22472465221837233e-07
 53 -1.74923939885700264e-02
 54  2.46381839734083730e-11
 55 -2.66752110392072979e-11
 56  2.67064031292720789e-11
 57  8.02820074176985644e-08
 58  3.32406161194906619e-03
 59 -2.39554884320583253e-11
 60  2.59272757682395108e-11
 61  4.09004042997058773e-12
 62  2.60806567972999466e-11
 63 -6.70610541330462759e-11
 64 -1.69308732924553962e-10
 65  2.84716007314657181e-10
 66  8.97460068755226791e-10
 67  1.47593299810653996e-09
 68  6.30433915189363603e-06
 69  2.61029992410608980e-01
 70 -7.92950271221074508e-09
 71  4.92843673338184611e-06
 72  2.04061008017968615e-01
 73 -5.65015706074684110e-09
 74  2.43353065576453490e-06
 75  1.00759885111923311e-01
 76 -2.66488193236782531e-09
 77 -3.97630281409923933e-10
 78  2.01235777968013129e-07
 79  8.33213002469715067e-03
 80 -2.19381836261943488e-10
 81  2.37366221919521925e-10
 82 -7.53500850311350364e-10
 83  4.22472465861857869e-07
 84  1.74923939894655912e-02
 85 -4.16698823908926341e-10
 86  4.50843059428064422e-10
 87 -2.32128750820165571e-10
 88  8.02820073811947134e-08
 89  3.32406161169368150e-03
 90 -1.08649691488183441e-10
 91  1.17548629354499833e-10
 92  4.08924616414797196e-12
 93  2.55863262190100269e-11
 Sym= A
 Ene= -6.00479524915882634e-01
 Spin= Alpha
 Occup=  1.00000000000000000e+00
  1  7.94667018842447528e-11
  2  1.72239392499524293e-10
  3  1.46878861898451679e-09
  4 -1.07798522743350246e-08
  5 -2.45040632111699013e-09
  6  3.65742729397516903e-09
  7  3.38172511028117316e-09
  8  2.67979479257034414e-01
  9  2.43211576755509528e-09
 10  2.24890275750159800e-09
 11  1.78202727339141331e-01
 12 -5.58385775696427314e-10
 13 -5.15861734826167570e-10
 14 -4.09070729180931528e-02
 15 -2.15041594816892002e-10
 16 -3.49707964364834485e-10
 17 -3.23227610161816104e-10
 18  7.29150463904728469e-14
 19  7.64742295515786284e-17
 20 -3.50226923991218162e-09
 21  2.50191971159941289e-10
 22  2.31246571588707823e-10
 23  6.87687713418813295e-14
 24 -2.31868186110328568e-16
 25  1.61149802553248872e-02
 26  5.38756163453589863e-10
 27  4.98043068564022000e-10
 28 -1.92039917648127461e-14
 29  5.74451203459086219e-16
 30 -7.71831410784225858e-17
 31  1.49874651234673649e-16
 32  3.23053477941947290e-02
 33  7.67189701076736730e-02
 34 -1.12072718543887950e-01
 35 -2.15381548437669768e-01
 36 -1.52763536065445182e-01
 37  1.91467949006468868e-09
 38  1.77078375580730040e-09
 39 -2.96285069702767134e-01
 40  1.16599591891464859e-09
 41  1.07855411378371837e-09
 42 -1.98627523175757104e-01
 43  9.56034632250142201e-10
 44  8.84062008082608580e-10
 45 -9.68816121918460865e-02
 46  8.77384870223635836e-03
 47 -7.40864047801517545e-11
 48 -6.85106121007992300e-11
 49 -9.42461889538445946e-14
 50 -1.97635421030674387e-16
 51  1.14998939824141767e-02
 52  2.96849781199441088e-11
 53  2.73635061217199964e-11
 54 -3.81409229945387992e-13
 55  2.35951461248886721e-16
 56 -2.80409137397810140e-03
 57  1.23538591147397748e-11
 58  1.14323525332788805e-11
 59 -2.62665474767744803e-13
 60  5.30241774648202046e-16
 61  4.44831672488504272e-15
 62 -5.61072482017398140e-15
 63 -3.23053479000629182e-02
 64 -7.67189703077022223e-02
 65  1.12072717924016713e-01
 66  2.15381554969234529e-01
 67  1.52763544959397507e-01
 68 -1.00030705243920868e-08
 69 -9.24453111619856592e-09
 70 -2.96285070535919626e-01
 71 -6.58843866636737649e-09
 72 -6.08869894586227874e-09
 73 -1.98627520267885160e-01
 74 -3.60086465332387200e-09
 75 -3.32777944048181352e-09
 76 -9.68816090998740609e-02
 77 -8.77384874006760865e-03
 78 -4.88940788824365804e-10
 79 -4.51883292489223884e-10
 80 -7.51191932946551609e-14
 81 -7.30042206256216247e-16
 82 -1.14998933919323865e-02
 83 -5.14072268564487960e-10
 84 -4.75072293128887140e-10
 85 -2.10189381602673187e-13
 86  1.74031604099674170e-15
 87 -2.80409134961850893e-03
 88 -1.99855741062199238e-10
 89 -1.84709545818034286e-10
 90  2.04138977578139196e-13
 91  3.20860461989319274e-16
 92 -4.67241782732812802e-15
 93  5.24169810922194048e-15
 Sym= A
 Ene= -4.46708826230552247e-01
 Spin= Alpha
 Occup=  1.00000000000000000e+00
  1  3.08868836593275525e-16
  2  2.59239209980851774e-16
  3 -6.12792912342414259e-15
  4  3.71255764552518461e-14
  5 -8.02380933326081082e-15
  6  5.33892626123570607e-11
  7 -4.70470222374132717e-15
  8  7.05657140682231582e-10
  9 -9.20557324976144937e-11
 10 -3.60079845859978130e-15
 11 -1.83264093983071691e-09
 12  3.24388126619669503e-10
 13 -7.99393941643497979e-15
 14 -3.23340280660383952e-09
 15  8.79709515110953629e-10
 16 -3.72122029117927244e-02
 17  8.72082995904519508e-07
 18 -5.07920958903308926e-10
 19 -4.69438294871775464e-10
 20  1.36064891014310096e-09
 21 -5.75557541482464227e-02
 22  1.34884233221194833e-06
 23 -7.85595366069919335e-10
 24 -7.26075913978740213e-10
 25 -4.04803867000762121e-10
 26 -5.53133003213921924e-11
 27 -4.78255538475983563e-16
 28  2.36331997216329478e-10
 29  2.18414459227992193e-10
 30 -1.18358131384047934e-13
 31 -5.60077812255152510e-17
 32 -5.00112085191730773e-11
 33 -1.40818180339236871e-10
 34  4.69094227803635921e-10
 35 -3.90810060060959775e-10
 36  2.89034427454883159e-09
 37 -3.49065293918709718e-01
 38  8.18048606217748084e-06
 39 -2.95612216192047270e-09
 40 -2.81636972327318602e-01
 41  6.60027613223037895e-06
 42 -2.50313210480049809e-09
 43 -1.91876875845082256e-01
 44  4.49671203361239508e-06
 45 -1.66013960735822970e-09
 46  9.03663910839237267e-11
 47  6.17679500894163357e-03
 48 -1.44755684378647518e-07
 49 -1.98913157840921557e-11
 50 -1.83834995457214740e-11
 51  1.55150470089443791e-10
 52  1.91193627472797181e-02
 53 -4.48069984163452434e-07
 54 -4.86842599853635985e-11