[Molden Format]
[Atoms] (AU)
N    1    7        -0.101484417824       0.042802091602       0.068436017810
H    2    1         1.386989136774      -0.428111002546       1.186385543571
H    3    1         0.546613402813       1.354670877530      -1.175145429881
H    4    1        -0.523542491817      -1.521267127815      -0.962114115933
[GTO]
  1 0
 s    6  1.00
    19730.8006470000         0.0002188798
     2957.8958745000         0.0016960709
      673.2213359500         0.0087954604
      190.6824949400         0.0353593826
       62.2954418980         0.1109578922
       22.6541611820         0.2498297255
 s    2  1.00
        8.9791477428         0.4062389615
        3.6863002370         0.2433821718
 s    1  1.00
        0.8466007680         1.0000000000
 s    1  1.00
        0.3364713377         1.0000000000
 s    1  1.00
        0.1364765367         1.0000000000
 p    4  1.00
       49.2003805100         0.0055552417
       11.3467905370         0.0380523797
        3.4273972411         0.1495367103
        1.1785525134         0.3494930523
 p    1  1.00
        0.4164220497         1.0000000000
 p    1  1.00
        0.1426082601         1.0000000000
 d    1  1.00
        1.6540000000         1.0000000000
 d    1  1.00
        0.4690000000         1.0000000000
 f    1  1.00
        1.0930000000         1.0000000000

  2 0
 s    3  1.00
       34.0613410000         0.0060251978
        5.1235746000         0.0450210940
        1.1646626000         0.2018972600
 s    1  1.00
        0.3272304100         1.0000000000
 s    1  1.00
        0.1030724100         1.0000000000
 p    1  1.00
        0.8000000000         1.0000000000

  3 0
 s    3  1.00
       34.0613410000         0.0060251978
        5.1235746000         0.0450210940
        1.1646626000         0.2018972600
 s    1  1.00
        0.3272304100         1.0000000000
 s    1  1.00
        0.1030724100         1.0000000000
 p    1  1.00
        0.8000000000         1.0000000000

  4 0
 s    3  1.00
       34.0613410000         0.0060251978
        5.1235746000         0.0450210940
        1.1646626000         0.2018972600
 s    1  1.00
        0.3272304100         1.0000000000
 s    1  1.00
        0.1030724100         1.0000000000
 p    1  1.00
        0.8000000000         1.0000000000

[5D]
[9G]

[MO]
 Sym= A
 Ene= -1.43640215116139540e+01
 Spin= Alpha
 Occup=  1.00000000000000000e+00
  1  4.48499733622370167e-01
  2  6.26855750946855639e-01
  3  3.42936065767351569e-02
  4 -2.13877826591599950e-02
  5  1.51446398649186017e-02
  6  1.39778436706521590e-03
  7 -5.89887346317313462e-04
  8 -9.42750053695089294e-04
  9 -8.21495820931413771e-04
 10  3.45002520436670987e-04
 11  5.53582816120038791e-04
 12  1.50777606319348338e-03
 13 -6.36335394436644180e-04
 14 -1.01689738750121829e-03
 15  1.28845850798080839e-05
 16  1.12564199972742170e-04
 17 -4.73275615318417188e-05
 18 -6.85870619128903003e-05
 19  7.04378159458660656e-05
 20  7.95964854834554912e-06
 21  7.03617836843090154e-05
 22 -2.88475513922074058e-05
 23 -4.29030334548973868e-05
 24  4.38832822198966627e-05
 25  2.55213815152136997e-05
 26  3.62338946232581953e-05
 27  9.14700480573287091e-06
 28  1.18379918201886743e-04
 29 -9.59776786305923334e-05
 30  1.88706491924590715e-05
 31 -6.99742043393703107e-06
 32  2.12047504198401005e-04
 33 -2.21484491983720428e-04
 34 -2.57489639175739618e-03
 35  4.07115698102045024e-04
 36 -1.28666931273851482e-04
 37  3.07039744473564500e-04
 38  2.12331264032372257e-04
 39 -2.20601763813680528e-04
 40 -2.57484659990012696e-03
 41  1.76553349472507385e-04
 42  3.59566436902993025e-04
 43 -3.39847043654619525e-04
 44  2.11587960303730773e-04
 45 -2.22771660232304428e-04
 46 -2.57503655245124507e-03
 47 -1.16805964390420715e-04
 48 -4.29135110174939244e-04
 49 -2.82405604563970829e-04
 Sym= A
 Ene= -9.31973248273331611e-01
 Spin= Alpha
 Occup=  1.00000000000000000e+00
  1 -9.48777606289670228e-02
  2 -2.13153070501284653e-01
  3  3.25396743702938418e-01
  4  3.70543077547767163e-01
  5  1.27540627939562695e-01
  6  5.81308451170008678e-02
  7 -2.45511731513121945e-02
  8 -3.92106106097684717e-02
  9  4.62431424970671245e-02
 10 -1.95169801680334688e-02
 11 -3.11883493562859528e-02
 12  1.01986372003386155e-02
 13 -4.30526398872148504e-03
 14 -6.87859667593645596e-03
 15  2.91807001871241111e-04
 16  2.54747686403323853e-03
 17 -1.07248002861254159e-03
 18 -1.55214691478444081e-03
 19  1.59400123904987739e-03
 20  3.07206891757890322e-04
 21  2.68058260859737902e-03
 22 -1.13356195950870182e-03
 23 -1.63240010114977930e-03
 24  1.67859448080671372e-03
 25  2.83073306127850830e-04
 26  8.89398894214352424e-04
 27  3.76142772199500731e-04
 28  4.22098642066427807e-03
 29 -3.55410458218952379e-03
 30  3.67271073020476453e-04
 31  3.11347534178487806e-04
 32  9.04430625893028611e-02
 33  8.19807711225907093e-02
 34  9.77702754686132249e-03
 35 -1.12375697208303028e-02
 36  3.34763133227702035e-03
 37 -1.12364594090107843e-02
 38  9.04299227351041679e-02
 39  8.19687356469514655e-02
 40  9.77759079890030969e-03
 41 -3.78428566957845916e-03
 42 -1.24580744174708404e-02
 43  9.70165277527353792e-03
 44  9.04620550441517096e-02
 45  8.19963441045491459e-02
 46  9.77625313436212597e-03
 47  5.70560138669614237e-03
 48  1.30458792147256919e-02
 49  7.81852064552325879e-03
 Sym= A
 Ene= -5.28430800413251411e-01
 Spin= Alpha
 Occup=  1.00000000000000000e+00
  1 -5.46369478075447343e-07
  2 -1.24087195989547866e-06
  3 -2.08716592754832282e-06
  4  2.38135306969873968e-05
  5  6.37243696728293624e-06
  6  2.05793965122406108e-01
  7  2.37502053910635669e-01
  8  1.56518256593611099e-01
  9  1.51578253195253476e-01
 10  1.74926944424949188e-01
 11  1.15276452418586986e-01
 12  7.81094461884477842e-02
 13  9.01427575902542660e-02
 14  5.94048075862962377e-02
 15 -4.04788647332985556e-04
 16  1.06686590052212991e-03
 17 -1.21391552802073577e-02
 18  8.31156428742513102e-03
 19 -1.72540478823466096e-03
 20 -8.30971952180795635e-03
 21  8.13200546556797142e-04
 22 -1.03666680490426526e-02
 23  1.39629280825442851e-02
 24  6.83280691700384815e-03
 25 -5.04778188434368367e-04
 26  1.01125418091578914e-03
 27 -3.47438359412188043e-04
 28  7.48520221158787487e-04
 29  8.82331685458003921e-04
 30 -1.45079243526328506e-03
 31 -3.78354865346164967e-04
 32  1.02558497371284404e-01
 33  1.38159587639109960e-01
 34  5.55947863514983306e-02
 35 -8.60770190886990007e-03
 36  1.44860275974224573e-02
 37 -6.79460058271423063e-03
 38  6.94760942550876892e-02
 39  9.35940435932655634e-02
 40  3.76644461193102256e-02
 41  3.22435192137100150e-03
 42 -9.22993608099233719e-04
 43  1.55401024214676369e-02
 44 -1.72025838898166250e-01
 45 -2.31731197160588015e-01
 46 -9.32364957356080909e-02
 47 -4.99795524921799856e-04
 48 -2.03536894596965945e-02
 49 -1.32212765931005519e-02
 Sym= A
 Ene= -5.28384468698142928e-01
 Spin= Alpha
 Occup=  1.00000000000000000e+00
  1  1.53031585433017863e-06
  2  3.49883721389374730e-06
  3 -3.69513568333911043e-06
  4 -1.84827921293973610e-05
  5 -6.90572310619830267e-06
  6  7.36663688802672023e-02
  7 -2.31092553733817457e-01
  8  2.53809121727453846e-01
  9  5.42607234780750625e-02
 10 -1.70224090248666027e-01
 11  1.86959176108612152e-01
 12  2.79646906215251408e-02
 13 -8.77255021797583440e-02
 14  9.63493573563333344e-02
 15 -3.39772143585459398e-03
 16  1.01828324753750095e-02
 17  5.40452508829848081e-03
 18  4.92506910504561784e-03
 19 -7.20928232590427841e-03
 20 -1.34964740406793814e-02
 21  9.35194765327963112e-03
 22  2.25707350485261941e-03
 23 -1.04494693188114988e-03
 24 -1.19667989166896086e-02
 25 -6.43287444480408407e-04
 26  1.51223066422375438e-03
 27 -7.99521754289285198e-04
 28 -5.93476872294766808e-04
 29 -3.14685900178970684e-04
 30  7.69483596090857398e-04
 31  7.76112183430494452e-04
 32  1.39419377644215359e-01
 33  1.87818479051220594e-01
 34  7.55919972399837353e-02
 35 -1.97318239391972017e-02
 36 -1.89701223868739602e-03
 37 -7.63452163169294276e-03
 38 -1.58518618237063008e-01
 39 -2.13554155504430548e-01
 40 -8.59553573090716255e-02
 41  1.38113405735310890e-02
 42  1.42148814399294422e-02
 43 -1.16483998119095364e-02
 44  1.90965848824321688e-02
 45  2.57252691897318052e-02
 46  1.03515449590298736e-02
 47  3.81702393768105922e-03
 48 -5.72002876773654301e-03
 49  1.20373202054197808e-02
 Sym= A
 Ene= -3.36004203027733650e-01
 Spin= Alpha
 Occup=  1.00000000000000000e+00
  1 -3.27583920234385054e-02
  2 -7.48398452375646506e-02
  3  1.19303931229594942e-01
  4  1.87893864812682942e-01
  5  1.45270474627687912e-01
  6 -3.17821072759528978e-01
  7  1.34133840391919446e-01
  8  2.14367481098174967e-01
  9 -2.57267028320084135e-01
 10  1.08575180692116760e-01
 11  1.73522910667577995e-01
 12 -2.72355860347056611e-01
 13  1.14942698419979353e-01
 14  1.83698984867079057e-01
 15  3.32299250068399294e-04
 16  2.89339065488452988e-03
 17 -1.22184269064033193e-03
 18 -1.76234755038409078e-03
 19  1.81074823133380090e-03
 20  2.58214189861999746e-03
 21  2.24809153264234965e-02
 22 -9.48744785018613979e-03
 23 -1.36985273350129343e-02
 24  1.40662845270594881e-02
 25  2.13674811609651993e-03
 26  1.09822906957187760e-03
 27 -3.16155694871388658e-04
 28 -1.70070473130984139e-03
 29  1.89863031453169854e-03
 30  9.37327643361602334e-04
 31 -2.15401840134320536e-03
 32 -4.36243000089303265e-02
 33 -4.67354670974796868e-02
 34 -2.67747674709538849e-02
 35 -8.57268243370751075e-03
 36  4.35817316499977590e-03
 37  1.57705508902533618e-02
 38 -4.36255059165652631e-02
 39 -4.67400645344708751e-02
 40 -2.67819721123220382e-02
 41 -1.25276977514725482e-02
 42  1.27497405108033483e-02
 43  4.65377267411407752e-03
 44 -4.36283728191590378e-02
 45 -4.67374946457311535e-02
 46 -2.67681240238689389e-02
 47 -1.75676118881823093e-02
 48 -7.88130882270858535e-04
 49  5.65695666673451687e-03
 Sym= A
 Ene=  6.34648147244389893e-02
 Spin= Alpha
 Occup=  0.00000000000000000e+00
  1 -3.96133754427981447e-02
  2 -9.65691526113396786e-02
  3  2.63688782898164276e-01
  4 -2.52378507681279174e-01
  5  2.20204223325021031e+00
  6  8.37460379040027708e-02
  7 -3.52932626777316891e-02
  8 -5.64676511095498143e-02
  9  2.24034913565281379e-02
 10 -9.40163549745140319e-03
 11 -1.50955123784774457e-02
 12  3.28527213319425415e-01
 13 -1.38535080592124521e-01
 14 -2.21535926056311033e-01
 15 -3.11063251136975947e-04
 16 -2.71061898414190006e-03
 17  1.14377405412231813e-03
 18  1.65153273057114225e-03
 19 -1.69632055925471033e-03
 20 -1.18096957782607087e-03
 21 -1.03000534349004177e-02
 22  4.33908662537641193e-03
 23  6.27758018990594215e-03
 24 -6.44365972125166518e-03
 25 -1.30336266701553674e-03
 26 -1.55941517032807085e-03
 27 -3.06969806048277313e-04
 28 -4.27972383100956762e-03
 29  3.39314865933219205e-03
 30 -8.62796465584579229e-04
 31  6.00078203769524566e-04
 32 -1.58724230743105266e-02
 33  6.64039690224624019e-03
 34 -1.03843339718542205e+00
 35 -2.96535291448880509e-02
 36  9.20322594579760407e-03
 37 -2.47050108257776888e-02
 38 -1.58834602593369602e-02
 39  6.61602163320778886e-03
 40 -1.03845973220478704e+00
 41 -1.19468784584377610e-02
 42 -2.83548225020209821e-02
 43  2.50477365604727387e-02
 44 -1.58585502629618076e-02
 45  6.67634624456782746e-03
 46 -1.03838303540698651e+00
 47  1.06021192677324041e-02
 48  3.22397519278762312e-02
 49  2.05644996463024837e-02
 Sym= A
 Ene=  1.47198670212760091e-01
 Spin= Alpha
 Occup=  0.00000000000000000e+00
  1  1.33916590024171017e-06
  2  3.51832330824304732e-06
  3 -2.24164477297548013e-05
  4  9.78708742781303975e-05
  5 -2.85862762885569829e-04
  6 -2.99064986010285153e-02
  7  1.81799414991692609e-01
  8 -1.58094082414965170e-01
  9 -1.50019149057423564e-03
 10  9.16088033866476435e-03
 11 -7.99519822495081516e-03
 12 -1.17404369785139087e-01
 13  7.13647200017953676e-01
 14 -6.20555034587900511e-01
 15  1.19261222657822863e-03
 16  2.70154781943213965e-03
 17  2.57638423082632738e-03
 18  2.47720425659717558e-03
 19 -3.86255859316415612e-04
 20  3.60863926385218432e-04
 21  4.90857605895801963e-02
 22  4.02518553033113444e-02
 23  2.99697820884429582e-02
 24 -2.21751873558660405e-02
 25 -4.23444740996670697e-03
 26 -1.53183479041437321e-03
 27 -5.40238313526450985e-03
 28  2.63986838498182644e-03
 29  2.23218412819831038e-03
 30  5.43835260143680620e-03
 31 -1.93605554041622599e-03
 32  1.57671796958407939e-02
 33 -1.41312689520975032e-01
 34  1.60324101322386214e+00
 35  4.51334723668820534e-02
 36 -8.37395419231413973e-03
 37  2.79963059128877298e-02
 38 -2.13692240660050131e-02
 39  1.91360126258412033e-01
 40 -2.17147186289994654e+00
 41 -2.89017490127210855e-02
 42 -4.73222422364443021e-02
 43  4.65630187823943067e-02
 44  5.58105806697800286e-03
 45 -5.01445469252202736e-02
 46  5.68557916514085271e-01
 47 -5.30634046864754232e-03
 48 -1.07031425709852458e-02
 49 -1.68338188391899540e-02
 Sym= A
 Ene=  1.47207816880470438e-01
 Spin= Alpha
 Occup=  0.00000000000000000e+00
  1  2.65711280786981466e-06
  2  6.67959626677161332e-06
  3 -3.23493908368965090e-05
  4  1.21198304944843385e-04
  5 -3.93903590566218622e-04
  6  1.48148299140012707e-01
  7  1.39480487089476052e-01
  8  1.32376766402475476e-01
  9  7.42357361430830056e-03
 10  6.95206657187551202e-03
 11  6.60863029128043716e-03
 12  5.81594447101615675e-01
 13  5.47616855090300336e-01
 14  5.19713713742061656e-01
 15 -1.90213402967686989e-03
 16 -7.25852547131170802e-04
 17  3.14970901919436365e-03
 18 -1.18251005898240501e-03
 19  2.48252092042236050e-03
 20 -1.27199470022298956e-02
 21 -1.27919389662031723e-02
 22  5.63247430482683512e-02
 23 -3.42353024097751882e-02
 24  2.74432654233097741e-02
 25  5.81611004756488539e-03
 26 -2.42037465275534791e-03
 27 -3.37704260223478962e-03
 28  1.55119628858644892e-03
 29  1.97604066172886537e-03
 30  1.07070477466545723e-03
 31  6.01868572647759007e-03
 32 -1.55458812018123005e-02
 33  1.39490891583323895e-01
 34 -1.58198095504438241e+00
 35 -4.04117901488911038e-02
 36  1.93496707260863675e-02
 37 -2.84498787021467449e-02
 38 -5.86982536793455908e-03
 39  5.26688074882138493e-02
 40 -5.97308035658330350e-01
 41 -2.51461372064165113e-03
 42 -9.90979365888313563e-03
 43  1.89227744233538449e-02
 44  2.13931265864420947e-02
 45 -1.92275192296568836e-01
 46  2.17974036570531338e+00
 47 -1.12035839692717302e-02
 48 -6.04225099376231312e-02
 49 -3.88520369916589281e-02
 Sym= A
 Ene=  3.47599058933567240e-01
 Spin= Alpha
 Occup=  0.00000000000000000e+00
  1  1.56328792512041977e-06
  2  2.70033941021337928e-06
  3 -6.34383895456234242e-06
  4  4.37409205218001812e-05
  5  2.55043395254889735e-04
  6  3.46591104947971971e-03
  7 -9.81418862710720617e-03
  8  1.12995104970344418e-02
  9  6.42023043687253575e-02
 10 -1.81349715761100649e-01
 11  2.08646843994648834e-01
 12  3.78567734566662817e-01
 13 -1.06934488168809572e+00
 14  1.23024199294911862e+00
 15  5.22067506376569859e-03
 16 -2.54622632611679924e-02
 17 -1.34569722991999454e-02
 18 -1.45285442400033306e-02
 19  1.65138273177690767e-02
 20 -4.91833557805397698e-02
 21  1.61476005574307357e-01
 22  8.12542800779646190e-02
 23  8.39533541984582854e-02
 24 -1.12471506144198249e-01
 25 -1.51053814837633985e-02
 26  3.69176300923924460e-03
 27 -1.47005444577349466e-02
 28  3.25423915474097342e-03
 29  3.27432651635646511e-03
 30  1.54043177326894792e-02
 31 -3.92093762974027663e-03
 32 -9.52832885805631191e-02
 33 -1.27235384297608278e+00
 34 -7.37724463161342908e-02
 35  7.63231647258023616e-02
 36 -3.45342213376527846e-02
 37  7.42355034526656909e-02
 38  1.04838570894068700e-01
 39  1.39989314252619890e+00
 40  8.09536906372754772e-02
 41 -2.75034020518810235e-02
 42 -8.81632544387155326e-02
 43  8.09770986070867949e-02
 44 -9.55293389828701552e-03
 45 -1.27609942980849406e-01
 46 -7.43408190711239598e-03
 47  1.72415247007068123e-03
 48 -2.00804446322947472e-02
 49  9.05112259933970806e-03
 Sym= A
 Ene=  3.47622124603073013e-01
 Spin= Alpha
 Occup=  0.00000000000000000e+00
  1  1.70023522863214528e-06
  2  2.03186199282705246e-06
  3 -8.39897217980022289e-06
  4  9.73619058318434856e-05
  5  5.53832569840255256e-04
  6 -8.92289999227398323e-03
  7 -1.06589480287734382e-02
  8 -6.51721694497838476e-03
  9 -1.64727877120943639e-01
 10 -1.97281518527014088e-01
 11 -1.20806396287283999e-01
 12 -9.70919191423896044e-01
 13 -1.16298199387426116e+00
 14 -7.12167968337035773e-01
 15  1.59143586493094716e-03
 16  1.99902859412633008e-03
 17 -3.09018749794946652e-02
 18  1.83672673018022876e-02
 19 -6.44207405907178555e-03
 20  1.50392684186994663e-03
 21 -1.24184277182395140e-02
 22  1.94743175014712888e-01
 23 -1.26382296698451246e-01
 24  2.78919137626771896e-02
 25  1.40017972404491153e-02
 26 -1.03270228470399104e-02
 27 -8.88137723879172183e-03
 28  1.61981607385370554e-03
 29  1.94086044675760225e-03
 30  1.08098935959682636e-02
 31  1.50753987657670004e-02
 32  6.60414860529702635e-02
 33  8.81974815539846357e-01
 34  5.13652138326549032e-02
 35 -6.09938955348902009e-02
 36  2.19409233272682691e-03
 37 -4.98575862496514755e-02
 38  4.94871037703293049e-02
 39  6.60918276320392239e-01
 40  3.83956362028124373e-02
 41 -2.61072738659944778e-02
 42 -4.91432906255615115e-02
 43  2.34672668895061984e-02
 44 -1.15544105718525747e-01
 45 -1.54317302732464645e+00
 46 -9.02030590144349276e-02
 47 -4.25385161875663081e-02
 48 -1.08333024118382026e-01
 49 -6.86971692030289849e-02
 Sym= A
 Ene=  4.03608649312961643e-01
 Spin= Alpha
 Occup=  0.00000000000000000e+00
  1 -2.61958439921668347e-02
  2 -5.32767655044766239e-02
  3 -5.44710453948745246e-02
  4  8.11544414195406572e-01
  5  5.28396770532354055e-04
  6 -2.12419931554188507e-01
  7  8.96556967325335546e-02
  8  1.43275425044677301e-01
  9 -4.74142472881093402e-01
 10  2.00103337608351417e-01
 11  3.19809633280416172e-01
 12  1.08023878008889107e+00
 13 -4.55808619286252270e-01
 14 -7.28522238454965554e-01
 15  4.02432253998731592e-04
 16  3.50060759320328096e-03
 17 -1.47526872846956533e-03
 18 -2.13400336886050441e-03
 19  2.18982599892362118e-03
 20  1.03425661934412731e-03
 21  9.06459799657275550e-03
 22 -3.82085719050150215e-03
 23 -5.51231862247056770e-03
 24  5.67661375470795634e-03
 25  2.62874560616261927e-03
 26  3.14027425466238122e-03
 27  6.16497257006610902e-04
 28  8.59653836587494571e-03
 29 -6.81285239408655624e-03
 30  1.73707383760502115e-03
 31 -1.21691853946064932e-03
 32 -1.19073918792940246e-02
 33 -4.10435089824230714e-01
 34  5.85156176822777558e-03
 35  2.12974802172625384e-02
 36 -6.25864794492563253e-03
 37  2.24839222106035207e-02
 38 -1.19079749405969874e-02
 39 -4.10435276084342826e-01
 40  5.90663130330397294e-03
 41  6.70120576970248058e-03
 42  2.46970524412952058e-02
 43 -1.85247504694310249e-02
 44 -1.19015270255909619e-02
 45 -4.10330591846180426e-01
 46  5.82673280684784922e-03
 47 -1.18777187620332843e-02
 48 -2.52395268665055184e-02
 49 -1.48278126415618324e-02
 Sym= A
 Ene=  5.06974541073826335e-01
 Spin= Alpha
 Occup=  0.00000000000000000e+00
  1  6.44725969595717069e-02
  2  1.32803737930832194e-01
  3  1.71563177549179796e-01
  4 -2.81158098844633875e+00
  5  4.00154622101894386e+00
  6 -1.39532337389563194e-01
  7  5.87384870813942306e-02
  8  9.40676182847042380e-02
  9 -4.51557663130396802e-01
 10  1.90313185249686462e-01
 11  3.04482825201898677e-01
 12  5.64179402383596873e-01
 13 -2.37219639551772637e-01
 14 -3.80298705451028063e-01
 15  3.30275684082237246e-04
 16  2.87484906548161542e-03
 17 -1.21377605577595868e-03
 18 -1.75291023648700348e-03
 19  1.79705665539850370e-03
 20 -7.34481285627272529e-04
 21 -6.50641398163171250e-03
 22  2.67251367674066877e-03
 23  3.96753896774182900e-03
 24 -4.05895326178652271e-03
 25 -4.93297040955193583e-03
 26 -7.32030690109658488e-03
 27 -1.95640791623186367e-03
 28 -2.46900073699238103e-02
 29  2.01064349762519988e-02
 30 -3.73051978892491396e-03
 31  1.12937203508259982e-03
 32  8.36794333972186583e-02
 33  7.15065072089428710e-01
 34 -1.23959279490730356e+00
 35 -5.21904867091244618e-02
 36  1.75535005141072599e-02
 37 -2.51100399033304111e-02
 38  8.36914033282805531e-02
 39  7.15030731775634587e-01
 40 -1.24007389050051509e+00
 41 -2.82918192059231736e-02
 42 -3.30943139526187410e-02
 43  4.19902874362570039e-02
 44  8.36636167613707127e-02
 45  7.15086307813481814e-01
 46 -1.23896411438723297e+00
 47  2.12023833369678200e-03
 48  4.86652183562645835e-02
 49  3.59867777428171734e-02
 Sym= A
 Ene=  5.55303146560170879e-01
 Spin= Alpha
 Occup=  0.00000000000000000e+00
  1 -1.17020566606703472e-02
  2 -1.55328744642118863e-02
  3 -9.16796023734318816e-02
  4  1.24629135501900756e+00
  5 -5.61790927604863199e+00
  6 -3.58405712287796149e-02
  7  1.49469693162986462e-02
  8  2.41487676486054556e-02
  9 -2.20731598243550570e-01
 10  9.27688383221334650e-02
 11  1.48826506129057706e-01
 12 -8.68684622180564969e-01
 13  3.67459003031261444e-01
 14  5.85879802590647203e-01
 15  1.34583757948624361e-03
 16  1.17412193918729618e-02
 17 -4.95529834075445017e-03
 18 -7.15287879374310563e-03
 19  7.34690294684483495e-03
 20  3.51111330973023382e-03
 21  3.04907960460501885e-02
 22 -1.29123504771302341e-02
 23 -1.85834973709688780e-02
 24  1.90867377759510425e-02
 25 -5.27266991540778409e-03
 26 -6.44992272937645883e-03
 27 -1.32183172725766195e-03
 28 -1.81555766594988649e-02
 29  1.44449907808806115e-02
 30 -3.53328264128680665e-03
 31  2.31728513892559941e-03
 32  3.58179902519410523e-02
 33  1.31757350076835422e+00
 34  7.89173189520729679e-01
 35 -5.60100150500742952e-02
 36  2.00542849761107811e-02
 37 -1.06134393583647048e-02
 38  3.58524843349826081e-02
 39  1.31774634175892125e+00
 40  7.88098938435463858e-01
 41 -3.68347062563504773e-02
 42 -2.05925179716614191e-02
 43  4.32385488388317696e-02
 44  3.57843460264288954e-02
 45  1.31728550675192602e+00
 46  7.90185380073747057e-01
 47 -1.24495701946904271e-02
 48  4.49912332733444775e-02
 49  3.84015055253818932e-02
 Sym= A
 Ene=  5.75623811166979027e-01
 Spin= Alpha
 Occup=  0.00000000000000000e+00
  1 -9.95510905967557709e-06
  2 -2.32534046979425151e-05
  3 -2.95690408343171739e-05
  4  3.61139635639705922e-04
  5  7.48467686090630436e-04
  6  6.40789077758159159e-02
  7 -2.57050911881277211e-01
  8  2.55762062888517661e-01
  9  1.88623090877520633e-01
 10 -7.56378884184555456e-01
 11  7.52503069541226588e-01
 12 -3.33074707265440084e-01
 13  1.33734077366729687e+00
 14 -1.33099917653400923e+00
 15 -5.01891191502275031e-03
 16 -5.80831846151328227e-04
 17 -1.80349358522611408e-03
 18 -3.38940725016996817e-03
 19 -2.67824469605323044e-03
 20 -4.53882556822188775e-03
 21  1.18578966175739552e-02
 22  7.03601070427399035e-03
 23  4.83145061519176314e-03
 24 -8.67666003386191424e-03
 25 -5.42800728559929366e-03
 26  2.54892063843053032e-03
 27 -6.17154379291361393e-03
 28  4.80229609306736128e-04
 29  7.68020209363499962e-04
 30  6.56255612204672753e-03
 31 -1.06171485914570947e-05
 32 -7.68896439963844963e-02
 33 -6.34445549859022018e-01
 34  1.72018945162993431e+00
 35  1.40307538148112098e-02
 36 -1.76646741084957037e-02
 37  2.02223195544354792e-02
 38  9.38855971775876680e-02
 39  7.73819083763880422e-01
 40 -2.10155861827551727e+00
 41 -2.85979966687010395e-03
 42 -2.34470007735533802e-02
 43  2.45309946260852188e-02
 44 -1.70697855201308972e-02
 45 -1.41152320663294834e-01
 46  3.81495018661567153e-01
 47  3.24282306053475401e-03
 48 -1.65108503532693657e-02
 49  1.25218517591858397e-02
 Sym= A
 Ene=  5.75665025228514704e-01
 Spin= Alpha
 Occup=  0.00000000000000000e+00
  1 -1.66413730910675199e-05
  2 -3.74344826662288582e-05
  3 -5.69693436164304986e-05
  4  7.00447647002562946e-04
  5  5.11014933606142763e-04
  6 -2.20093692598872820e-01
  7 -2.33989867671082374e-01
  8 -1.80024194059024895e-01
  9 -6.47629289618882775e-01
 10 -6.88674485561146188e-01
 11 -5.29883522997430800e-01
 12  1.14552301925065136e+00
 13  1.21726180066559864e+00
 14  9.36381049381445507e-01
 15  4.47726448693189314e-03
 16  1.80843630545401214e-04
 17 -1.00040343229163020e-03
 18 -2.66042607033885586e-03
 19 -4.38873162023248591e-03
 20  1.21796367466467555e-03
 21 -1.97523864467475264e-03
 22  1.38753172178863789e-02
 23 -1.04916452595929435e-02
 24  2.07831046422097968e-03
 25  5.87636123210575224e-03
 26 -4.86728713977920609e-03
 27 -2.16781303744647841e-03
 28 -3.04776529874141292e-04
 29 -3.95977051668645647e-04
 30  4.78918596795318337e-03
 31  5.66474403311877702e-03
 32  6.40321355704997486e-02
 33  5.27755512850820896e-01
 34 -1.43357743297909335e+00
 35 -2.08609095966780372e-02
 36 -1.00848019547675558e-02
 37 -1.50067682633204420e-02
 38  3.45046813464540275e-02
 39  2.84167810337363824e-01
 40 -7.72786959237376725e-01
 41 -1.45131473662836116e-02
 42 -1.63253930627012753e-02
 43 -6.15389528264799219e-03
 44 -9.86380410848441691e-02
 45 -8.14195557339419729e-01
 46  2.20681337688793988e+00
 47 -1.39296332973914971e-02
 48 -2.61139529815819227e-02
 49 -1.92765788282098054e-02
 Sym= A
 Ene=  9.69642996472163232e-01
 Spin= Alpha
 Occup=  0.00000000000000000e+00
  1  3.50411988902938165e-07
  2  7.87522935814654748e-07
  3  6.13381678769901526e-06
  4 -4.39827396351770593e-05
  5 -8.63849194896000111e-05
  6  2.56834062499023581e-02
  7  3.30920078290390801e-02
  8  1.73560556069627288e-02
  9  3.62105360916557678e-02
 10  4.67045671247246913e-02
 11  2.45143237451495542e-02
 12  9.84315241459604029e-02
 13  1.26848646976192053e-01
 14  6.65562241225033380e-02
 15 -2.61713504659745206e-03
 16 -3.82417666968105400e-05
 17 -1.10705613901503400e-03
 18  3.43931462036858393e-03
 19  3.14244019625437672e-03
 20  4.13212342282945788e-01
 21  1.02824224513898103e-02
 22 -8.56226378906960739e-02
 23 -3.82379916445531431e-01
 24 -5.22125473027687081e-01
 25 -4.78565881717558147e-03
 26  4.03899517452393532e-03
 27  3.12976347563390708e-03
 28 -8.33382783929095491e-05
 29 -1.20409217483581876e-04
 30 -4.99879529625540855e-03
 31 -5.36251097228296423e-03
 32  7.58952252399386091e-03
 33 -1.01063387442935845e-01
 34 -8.94918120627719200e-03
 35 -8.89462646101720628e-02
 36 -1.11551233801423816e-01
 37  8.36692764672763850e-02
 38  6.94199784453481544e-03
 39 -9.24337180683726944e-02
 40 -8.17683266006237995e-03
 41 -1.43770178185229802e-01
 42  3.07851978472645791e-03
 43 -8.17310642973054224e-02
 44 -1.45174366632871473e-02
 45  1.93642787247416764e-01
 46  1.71451625577596252e-02
 47  1.56162740162149316e-01
 48  9.93002468089023566e-03
 49 -5.36069862379200818e-02
 Sym= A
 Ene=  9.69664851638260883e-01
 Spin= Alpha
 Occup=  0.00000000000000000e+00
  1  8.75056529752128428e-09
  2  3.44241389544321345e-08
  3  3.73341402970115024e-06
  4 -2.72038543454947812e-05
  5  4.86489917855535375e-06
  6 -1.17348020312530166e-02
  7  2.71431228710219269e-02
  8 -3.43821394148310575e-02
  9 -1.65601721202531769e-02
 10  3.82787828013866627e-02
 11 -4.84806259156216057e-02
 12 -4.49553684782915547e-02
 13  1.03963945299920146e-01
 14 -1.31718506312429401e-01
 15  4.48274784008715569e-03
 16 -1.19999894057183122e-03
 17  4.62476959945971422e-04
 18  1.19626677577637291e-03
 19  2.57213476398297910e-03
 20 -6.40448404831398754e-01
 21 -2.24403635671047742e-02
 22 -1.63990745974427754e-01
 23 -3.06660788577352406e-01
 24 -2.55817717082214402e-01
 25  5.88315726091028814e-03
 26 -2.52744778208372238e-03
 27  5.39704016019322726e-03
 28 -7.24973096180904996e-04
 29 -9.18695882337997776e-04
 30 -5.47690077040793692e-03
 31  1.13398755923698586e-03
 32 -1.23864024796943254e-02
 33  1.65127832400716629e-01
 34  1.45881098789529175e-02
 35  3.51328700880051276e-02
 36 -1.13884065426457737e-01
 37 -1.14717486624576787e-01
 38  1.27581488162610800e-02
 39 -1.70067997828643597e-01
 40 -1.50256744415906106e-02
 41 -4.93986765350587637e-02
 42  1.28674167839005232e-01
 43  9.15145149742614822e-02
 44 -3.73041276003585663e-04
 45  4.96738693933833787e-03
 46  4.31345750783250319e-04
 47  4.91917427659440687e-02
 48 -9.55877204073099507e-02
 49  1.25580523766219476e-01
 Sym= A
 Ene=  1.20239998202438003e+00
 Spin= Alpha
 Occup=  0.00000000000000000e+00
  1  2.74702391217434986e-03
  2  1.04575282717996737e-02
  3 -1.88689362359715979e-01
  4  2.76447033435195333e-01
  5  2.77242894201987600e+00
  6  9.02657048595499195e-02
  7 -3.81011974480743587e-02
  8 -6.08860744878223017e-02
  9  2.08478029664392384e-01
 10 -8.82469981810621446e-02
 11 -1.40712134605802730e-01
 12  6.75410581268609977e-01
 13 -2.85075875705528448e-01
 14 -4.55541088193061272e-01
 15 -1.11640854428324558e-03
 16 -9.72188362151033859e-03
 17  4.10697639194555590e-03
 18  5.92245769013125586e-03
 19 -6.08477858718963361e-03
 20  8.73797583579399573e-02
 21  7.61748882526323334e-01
 22 -3.21298117671219852e-01
 23 -4.64094082558536958e-01
 24  4.76738566913763540e-01
 25 -2.82114626144109324e-03
 26  3.87898475285534559e-03
 27  3.40846855822549708e-03
 28  3.41308533939680900e-02
 29 -2.97950860533746885e-02
 30  5.09946666254366835e-04
 31  7.13240498260971859e-03
 32  7.51490009092947893e-03
 33 -1.17912917307786569e+00
 34 -2.94416547595461597e-01
 35  6.93756888377018190e-03
 36  7.93910291136180717e-03
 37  1.41523432660070392e-01
 38  7.51881146643095660e-03
 39 -1.17895299937150599e+00
 40 -2.94377552942842624e-01
 41 -5.09814721269223267e-02
 42  1.30730934755400124e-01
 43 -2.11327831844093511e-02
 44  7.52427487274248772e-03
 45 -1.17960628451867899e+00
 46 -2.94398127060091663e-01
 47 -1.24733714044620483e-01
 48 -6.74903265145740949e-02
 49 -6.56371018121001699e-03
 Sym= A
 Ene=  1.30820366218346140e+00
 Spin= Alpha
 Occup=  0.00000000000000000e+00
  1 -2.79463940587449757e-06
  2 -5.18972628940281204e-06
  3  1.33572545239421146e-04
  4 -8.62409209612214267e-04
  5  9.86534595801599820e-06
  6 -1.81791499949093237e-02
  7 -1.76643471504318375e-02
  8 -1.59385428974634334e-02
  9  7.72676193394896904e-01
 10  7.49993162708512573e-01
 11  6.76733416002469945e-01
 12  5.98786648255332232e-01
 13  5.81071727281260997e-01
 14  5.24249084077676009e-01
 15  4.99868199112431938e-04
 16 -4.24731504263146020e-04
 17  2.06330686103664996e-03