
    -----------------------------------------------------------------------
          Psi4: An Open-Source Ab Initio Electronic Structure Package
                               Psi4 1.3.2 release

                         Git: Rev {HEAD} ecbda83 


    R. M. Parrish, L. A. Burns, D. G. A. Smith, A. C. Simmonett,
    A. E. DePrince III, E. G. Hohenstein, U. Bozkaya, A. Yu. Sokolov,
    R. Di Remigio, R. M. Richard, J. F. Gonthier, A. M. James,
    H. R. McAlexander, A. Kumar, M. Saitow, X. Wang, B. P. Pritchard,
    P. Verma, H. F. Schaefer III, K. Patkowski, R. A. King, E. F. Valeev,
    F. A. Evangelista, J. M. Turney, T. D. Crawford, and C. D. Sherrill,
    J. Chem. Theory Comput. 13(7) pp 3185--3197 (2017).
    (doi: 10.1021/acs.jctc.7b00174)


                         Additional Contributions by
    P. Kraus, H. Kruse, M. H. Lechner, M. C. Schieber, R. A. Shaw,
    A. Alenaizan, R. Galvelis, Z. L. Glick, S. Lehtola, and J. P. Misiewicz

    -----------------------------------------------------------------------


    Psi4 started on: Wednesday, 05 February 2020 02:14PM

    Process ID: 4138
    Host:       rh05314.villa-bosch.de
    PSIDATADIR: /media/miniconda3/envs/p4env/share/psi4
    Memory:     500.0 MiB
    Threads:    1
    
  ==> Input File <==

--------------------------------------------------------------------------

# PYTHONPATH must include directory above plugin directory.
#     Define either externally or here, then import plugin.

molecule {
  O   0.27681793323501      0.00000014791107      0.00000000000000
  H   0.86159097690242      0.76505117501585      0.00000000000000
  H   0.86159108986257     -0.76505132292693      0.00000000000000
symmetry c1
}

set {
  basis def2-TZVP
}


set scf {
 reference uks
}

energy('TPSS')
--------------------------------------------------------------------------

*** tstart() called on rh05314.villa-bosch.de
*** at Wed Feb  5 14:14:24 2020

   => Loading Basis Set <=

    Name: DEF2-TZVP
    Role: ORBITAL
    Keyword: BASIS
    atoms 1   entry O          line   189 file /media/miniconda3/envs/p4env/share/psi4/basis/def2-tzvp.gbs 
    atoms 2-3 entry H          line    15 file /media/miniconda3/envs/p4env/share/psi4/basis/def2-tzvp.gbs 


         ---------------------------------------------------------
                                   SCF
               by Justin Turney, Rob Parrish, Andy Simmonett
                          and Daniel G. A. Smith
                              UKS Reference
                        1 Threads,    500 MiB Core
         ---------------------------------------------------------

  ==> Geometry <==

    Molecular point group: c1
    Full point group: Cs

    Geometry (in Angstrom), charge = 0, multiplicity = 1:

       Center              X                  Y                   Z               Mass       
    ------------   -----------------  -----------------  -----------------  -----------------
         O           -0.065444807405     0.000000024830     0.000000000000    15.994914619570
         H            0.519328236262     0.765051051935     0.000000000000     1.007825032230
         H            0.519328349222    -0.765051446008     0.000000000000     1.007825032230

  Running in c1 symmetry.

  Rotational constants: A =     27.53924  B =     14.28895  C =      9.40769 [cm^-1]
  Rotational constants: A = 825605.71875  B = 428371.93058  C = 282035.58160 [MHz]
  Nuclear repulsion =    9.138491573938202

  Charge       = 0
  Multiplicity = 1
  Electrons    = 10
  Nalpha       = 5
  Nbeta        = 5

  ==> Algorithm <==

  SCF Algorithm Type is DF.
  DIIS enabled.
  MOM disabled.
  Fractional occupation disabled.
  Guess Type is SAD.
  Energy threshold   = 1.00e-06
  Density threshold  = 1.00e-06
  Integral threshold = 0.00e+00

  ==> Primary Basis <==

  Basis Set: DEF2-TZVP
    Blend: DEF2-TZVP
    Number of shells: 19
    Number of basis function: 43
    Number of Cartesian functions: 48
    Spherical Harmonics?: true
    Max angular momentum: 3

  ==> DFT Potential <==

   => Composite Functional: TPSS <= 

    TPSS Meta-GGA XC Functional

    J. Tao, et al., Phys. Rev. Lett., 91, 146401, 2003


    Deriv               =              1
    GGA                 =           TRUE
    Meta                =           TRUE

    Exchange Hybrid     =          FALSE
    MP2 Hybrid          =          FALSE

   => Exchange Functionals <=

    1.0000   XC_MGGA_X_TPSS

   => Correlation Functionals <=

    1.0000   XC_MGGA_C_TPSS

   => Molecular Quadrature <=

    Radial Scheme          =       TREUTLER
    Pruning Scheme         =           FLAT
    Nuclear Scheme         =       TREUTLER

    BS radius alpha        =              1
    Pruning alpha          =              1
    Radial Points          =             75
    Spherical Points       =            302
    Total Points           =          66779
    Total Blocks           =            571
    Max Points             =            256
    Max Functions          =             43

   => Loading Basis Set <=

    Name: (DEF2-TZVP AUX)
    Role: JKFIT
    Keyword: DF_BASIS_SCF
    atoms 1   entry O          line   323 file /media/miniconda3/envs/p4env/share/psi4/basis/def2-tzvp-jkfit.gbs 
    atoms 2-3 entry H          line    23 file /media/miniconda3/envs/p4env/share/psi4/basis/def2-tzvp-jkfit.gbs 

  ==> Pre-Iterations <==

   -------------------------------------------------------
    Irrep   Nso     Nmo     Nalpha   Nbeta   Ndocc  Nsocc
   -------------------------------------------------------
     A         43      43       0       0       0       0
   -------------------------------------------------------
    Total      43      43       5       5       5       0
   -------------------------------------------------------

  ==> Integral Setup <==

  DFHelper Memory: AOs need 0.002 GiB; user supplied 0.175 GiB. Using in-core AOs.

  ==> MemDFJK: Density-Fitted J/K Matrices <==

    J tasked:                   Yes
    K tasked:                    No
    wK tasked:                   No
    OpenMP threads:               1
    Memory [MiB]:               178
    Algorithm:                 Core
    Schwarz Cutoff:           1E-12
    Mask sparsity (%):       0.0000
    Fitting Condition:        1E-10

   => Auxiliary Basis Set <=

  Basis Set: (DEF2-TZVP AUX)
    Blend: DEF2-TZVP-JKFIT
    Number of shells: 37
    Number of basis function: 113
    Number of Cartesian functions: 133
    Spherical Harmonics?: true
    Max angular momentum: 4

  Cached 100.0% of DFT collocation blocks in 0.191 [GiB].

  Minimum eigenvalue in the overlap matrix is 8.5121914406E-03.
  Using Symmetric Orthogonalization.

  SCF Guess: Superposition of Atomic Densities via on-the-fly atomic UHF.

  ==> Iterations <==

                           Total Energy        Delta E     RMS |[F,P]|

   @DF-UKS iter SAD:   -76.13612862301011   -7.61361e+01   0.00000e+00 
   @DF-UKS iter   1:   -76.26120696570473   -1.25078e-01   1.80321e-02 DIIS
   @DF-UKS iter   2:   -75.69552178654303    5.65685e-01   3.22635e-02 DIIS
   @DF-UKS iter   3:   -76.46200652055316   -7.66485e-01   1.55613e-03 DIIS
   @DF-UKS iter   4:   -76.46394935177847   -1.94283e-03   1.51623e-04 DIIS
   @DF-UKS iter   5:   -76.46396446514240   -1.51134e-05   3.13810e-05 DIIS
   @DF-UKS iter   6:   -76.46396505941726   -5.94275e-07   2.38356e-06 DIIS
   @DF-UKS iter   7:   -76.46396506264527   -3.22801e-09   1.52116e-07 DIIS
  Energy and wave function converged.


  ==> Post-Iterations <==

   @Spin Contamination Metric:  -1.509903313E-14
   @S^2 Expected:                0.000000000E+00
   @S^2 Observed:               -1.509903313E-14
   @S   Expected:                0.000000000E+00
   @S   Observed:                0.000000000E+00

    Orbital Energies [Eh]
    ---------------------

    Alpha Occupied:                                                       

       1A    -18.880519     2A     -0.944032     3A     -0.484264  
       4A     -0.337344     5A     -0.260649  

    Alpha Virtual:                                                        

       6A      0.006875     7A      0.081356     8A      0.338955  
       9A      0.388343    10A      0.412599    11A      0.414932  
      12A      0.550806    13A      0.578821    14A      1.137453  
      15A      1.156660    16A      1.264416    17A      1.501317  
      18A      1.604539    19A      1.722459    20A      1.963377  
      21A      2.023566    22A      2.073923    23A      2.262167  
      24A      2.353536    25A      2.535925    26A      2.567600  
      27A      2.569353    28A      2.738130    29A      3.621872  
      30A      3.930312    31A      5.101167    32A      5.198467  
      33A      5.381720    34A      5.399111    35A      5.472465  
      36A      6.010134    37A      6.180917    38A      6.260472  
      39A      6.330176    40A      6.372148    41A      6.941009  
      42A      7.007726    43A     43.179215  

    Beta Occupied:                                                        

       1A    -18.880519     2A     -0.944032     3A     -0.484264  
       4A     -0.337344     5A     -0.260649  

    Beta Virtual:                                                         

       6A      0.006875     7A      0.081356     8A      0.338955  
       9A      0.388343    10A      0.412599    11A      0.414932  
      12A      0.550806    13A      0.578821    14A      1.137453  
      15A      1.156660    16A      1.264416    17A      1.501317  
      18A      1.604539    19A      1.722459    20A      1.963377  
      21A      2.023566    22A      2.073923    23A      2.262167  
      24A      2.353536    25A      2.535925    26A      2.567600  
      27A      2.569353    28A      2.738130    29A      3.621872  
      30A      3.930312    31A      5.101167    32A      5.198467  
      33A      5.381720    34A      5.399111    35A      5.472465  
      36A      6.010134    37A      6.180917    38A      6.260472  
      39A      6.330176    40A      6.372148    41A      6.941009  
      42A      7.007726    43A     43.179215  

    Final Occupation by Irrep:
              A 
    DOCC [     5 ]
    SOCC [     0 ]

  @DF-UKS Final Energy:   -76.46396506264527

   => Energetics <=

    Nuclear Repulsion Energy =              9.1384915739382020
    One-Electron Energy =                -122.9962159696185893
    Two-Electron Energy =                  46.7379629398978622
    DFT Exchange-Correlation Energy =      -9.3442036068627541
    Empirical Dispersion Energy =           0.0000000000000000
    VV10 Nonlocal Energy =                  0.0000000000000000
    Total Energy =                        -76.4639650626452863

  UHF NO Occupations:
  HONO-2 :    3  A 2.0000000
  HONO-1 :    4  A 2.0000000
  HONO-0 :    5  A 2.0000000
  LUNO+0 :    6  A 0.0000000
  LUNO+1 :    7  A 0.0000000
  LUNO+2 :    8  A 0.0000000
  LUNO+3 :    9  A 0.0000000


Computation Completed


Properties will be evaluated at   0.000000,   0.000000,   0.000000 [a0]

Properties computed using the SCF density matrix

  Nuclear Dipole Moment: [e a0]
     X:     0.9734      Y:    -0.0000      Z:     0.0000

  Electronic Dipole Moment: [e a0]
     X:    -0.1776      Y:     0.0000      Z:    -0.0000

  Dipole Moment: [e a0]
     X:     0.7958      Y:    -0.0000      Z:    -0.0000     Total:     0.7958

  Dipole Moment: [D]
     X:     2.0227      Y:    -0.0000      Z:    -0.0000     Total:     2.0227


*** tstop() called on rh05314.villa-bosch.de at Wed Feb  5 14:14:26 2020
Module time:
	user time   =       1.89 seconds =       0.03 minutes
	system time =       0.05 seconds =       0.00 minutes
	total time  =          2 seconds =       0.03 minutes
Total time:
	user time   =       1.89 seconds =       0.03 minutes
	system time =       0.05 seconds =       0.00 minutes
	total time  =          2 seconds =       0.03 minutes

    Psi4 stopped on: Wednesday, 05 February 2020 02:14PM
    Psi4 wall time for execution: 0:00:01.97

*** Psi4 exiting successfully. Buy a developer a beer!
