[Molden Format]
[Atoms] (AU)
O    1    8        -0.123672762329       0.000000046922       0.000000000000
H    2    1         0.981388135752       1.445736960150       0.000000000000
H    3    1         0.981388349216      -1.445737704840       0.000000000000
[GTO]
  1 0
 s    6  1.00
    27032.3826310000         0.0002172630
     4052.3871392000         0.0016838662
      922.3272271000         0.0087395616
      261.2407098900         0.0352399688
       85.3546413510         0.1115351912
       31.0350352450         0.2558895396
 s    2  1.00
       12.2608607280         0.3976873090
        4.9987076005         0.2462784943
 s    1  1.00
        1.1703108158         1.0000000000
 s    1  1.00
        0.4647474099         1.0000000000
 s    1  1.00
        0.1850453636         1.0000000000
 p    4  1.00
       63.2749548010         0.0060685103
       14.6270493790         0.0419125758
        4.4501223456         0.1615384109
        1.5275799647         0.3570695131
 p    1  1.00
        0.5293511794         1.0000000000
 p    1  1.00
        0.1747842127         1.0000000000
 d    1  1.00
        2.3140000000         1.0000000000
 d    1  1.00
        0.6450000000         1.0000000000
 f    1  1.00
        1.4280000000         1.0000000000

  2 0
 s    3  1.00
       34.0613410000         0.0060251978
        5.1235746000         0.0450210940
        1.1646626000         0.2018972600
 s    1  1.00
        0.3272304100         1.0000000000
 s    1  1.00
        0.1030724100         1.0000000000
 p    1  1.00
        0.8000000000         1.0000000000

  3 0
 s    3  1.00
       34.0613410000         0.0060251978
        5.1235746000         0.0450210940
        1.1646626000         0.2018972600
 s    1  1.00
        0.3272304100         1.0000000000
 s    1  1.00
        0.1030724100         1.0000000000
 p    1  1.00
        0.8000000000         1.0000000000

[5D]
[9G]

[MO]
 Sym= A
 Ene= -1.91275103931127042e+01
 Spin= Alpha
 Occup=  1.00000000000000000e+00
  1  4.35059752640593156e-01
  2  6.39766598958133703e-01
  3  3.41668183584312654e-02
  4 -2.21232795800950927e-02
  5  9.02632936100032993e-03
  6  1.78517895140329523e-03
  7 -8.22306809910044065e-11
  8  1.10253125215726941e-16
  9 -2.94740510975793511e-03
 10  9.82518193045800856e-10
 11 -1.56871951331358348e-16
 12  1.09712930140747891e-03
 13  6.41184308250247605e-10
 14  2.22948623963804751e-18
 15 -1.83710574552145946e-04
 16  4.77650602176422676e-17
 17  5.05706977808868727e-17
 18 -6.91595235119380977e-05
 19 -1.57230936619912422e-11
 20  8.89892802275700826e-04
 21 -9.15370601828011882e-17
 22  2.33726948126067543e-17
 23  3.57141857404304891e-04
 24  7.55366001714182839e-10
 25  1.23021941099174786e-17
 26  1.79118095566786040e-04
 27 -1.75817945402740763e-10
 28 -1.12449487044852070e-18
 29 -1.15128132930517363e-16
 30  3.33630797447099744e-04
 31 -2.50676270114570692e-11
 32  8.46527653947000847e-04
 33  1.59467804188793668e-03
 34 -1.87795410231109627e-03
 35 -6.30823526895069975e-04
 36 -8.98436844849884566e-04
 37  9.23345324563273768e-18
 38  8.46527441146954708e-04
 39  1.59467898213346677e-03
 40 -1.87795222617088541e-03
 41 -6.30824727474654833e-04
 42  8.98438562756054965e-04
 43  2.79881927279792409e-16
 Sym= A
 Ene= -1.01405674175376403e+00
 Spin= Alpha
 Occup=  1.00000000000000000e+00
  1  9.77516193314994786e-02
  2  2.29813087538565275e-01
  3 -3.35971835446249978e-01
  4 -4.35904308307938526e-01
  5 -1.57702853525814896e-01
  6 -8.61119504619031889e-02
  7 -7.00680209575203573e-08
  8 -3.89656093421479979e-16
  9 -7.18452388685346804e-02
 10 -2.23513267466562615e-08
 11 -1.17915288654925928e-16
 12 -1.18016896015014326e-02
 13 -2.44655271006416551e-09
 14 -2.42207841658193501e-16
 15  4.48823109296994736e-03
 16  1.43513825279663014e-16
 17 -1.86803030433183042e-16
 18  1.11222390171024821e-03
 19 -7.38061348427371425e-09
 20  1.11614251847440196e-02
 21 -6.81246260520811747e-18
 22  1.13852586082412534e-16
 23  1.25678451692201620e-03
 24  3.61118708993776901e-09
 25 -8.34566912865358546e-17
 26  2.69243947688866140e-03
 27  1.45934879688890068e-09
 28 -5.66747218354363006e-17
 29 -7.93942347751444395e-17
 30  4.13126340454580184e-03
 31 -1.95571864776529995e-09
 32 -9.41534780202820804e-02
 33 -6.99377446113326195e-02
 34 -7.11582895542614211e-03
 35  8.29943495454245166e-03
 36  1.51160819366777822e-02
 37 -2.13341023693548517e-16
 38 -9.41533608506973235e-02
 39 -6.99376714196739829e-02
 40 -7.11582368600941449e-03
 41  8.29941515773105661e-03
 42 -1.51160641791267536e-02
 43  5.59218077253373159e-17
 Sym= A
 Ene= -5.35293309509182413e-01
 Spin= Alpha
 Occup=  1.00000000000000000e+00
  1  2.08125586564851935e-08
  2  4.88592933174615877e-08
  3 -6.08412684683177416e-08
  4 -1.60746262075492420e-07
  5 -1.32286056011783911e-07
  6  1.10878965040895705e-07
  7  3.85049021108760270e-01
  8  4.43110912017398908e-16
  9  5.15154144872082042e-08
 10  2.94748646402286540e-01
 11 -1.55651645627597753e-15
 12  2.80262076890544258e-08
 13  1.22699232345119730e-01
 14  4.31466156955383398e-15
 15 -3.56561465119939440e-09
 16 -3.84907195221923707e-17
 17  3.36499115468711624e-16
 18  5.74597030968837047e-12
 19  1.23791185970648955e-02
 20  4.26702813413983924e-09
 21  2.06953147005931722e-16
 22 -4.98961097281091962e-17
 23  7.46276097916629521e-09
 24  2.40469144594578667e-02
 25 -3.68913429119373888e-17
 26 -9.85141766584293729e-10
 27 -4.97834226285258016e-03
 28 -7.71745832330259027e-17
 29 -1.25639583761019334e-16
 30 -1.05852126717536748e-09
 31 -1.73504029844795415e-04
 32  1.48765244013980280e-01
 33  1.85849199477282373e-01
 34  6.65954258734336724e-02
 35 -1.76732572993972790e-02
 36 -9.00333298030606480e-03
 37  1.03544608723115187e-16
 38 -1.48765211892922022e-01
 39 -1.85849191647153578e-01
 40 -6.65954574263052379e-02
 41  1.76732472840926587e-02
 42 -9.00333036995072666e-03
 43 -2.66409294867627761e-18
 Sym= A
 Ene= -3.90624176532475331e-01
 Spin= Alpha
 Occup=  1.00000000000000000e+00
  1 -3.68808377311558577e-02
  2 -8.81019024557480601e-02
  3  1.37621348721010867e-01
  4  1.95272564567220780e-01
  5  2.28468642468789507e-01
  6 -4.16810594105576360e-01
  7  7.43921642842660782e-08
  8  2.10996354912486909e-15
  9 -3.20304628232364885e-01
 10  8.15499481782871962e-08
 11  2.43209330600675084e-15
 12 -2.38839715900186683e-01
 13  4.25726780421224489e-08
 14  1.10232515648836003e-15
 15  4.60807236154761081e-03
 16 -1.01095553757101516e-16
 17  1.59383285315912428e-16
 18 -2.67154250881617003e-03
 19 -1.53432153185800309e-09
 20  1.20630005547126967e-02
 21 -2.41623475179628532e-17
 22 -1.86385312152003294e-16
 23 -2.29000191237804344e-02
 24  8.72392305673283364e-09
 25  1.02703029731606588e-16
 26  3.37065474952724176e-03
 27 -9.71927126549513690e-10
 28 -7.23733667236486940e-17
 29  1.13070867384605277e-17
 30  1.51804408768814220e-03
 31 -1.63598121036899119e-09
 32 -8.68075339279703595e-02
 33 -1.22835541417238903e-01
 34 -4.49995067191914858e-02
 35 -1.00011710421178956e-02
 36  1.69452596245755656e-02
 37 -4.93342396324836074e-17
 38 -8.68075647345681323e-02
 39 -1.22835610870680109e-01
 40 -4.49995896540105259e-02
 41 -1.00011691303893892e-02
 42 -1.69452523473570121e-02
 43  1.65931974984343286e-16
 Sym= A
 Ene= -3.16388895184416208e-01
 Spin= Alpha
 Occup=  1.00000000000000000e+00
  1 -1.86604663260243781e-16
  2 -4.90116750163559322e-16
  3  8.82809384574501374e-17
  4  4.24172413425919480e-15
  5 -4.09646082350610271e-15
  6 -2.25015519783845125e-15
  7 -8.42794091412452973e-16
  8 -4.76740523635961089e-01
  9 -7.18731763071858310e-16
 10  1.53928721115192735e-15
 11 -3.83089292783299340e-01
 12 -3.05984061136800898e-15
 13  7.94885091087679919e-16
 14 -3.39032564613182152e-01
 15  1.02923319952573175e-17
 16 -4.38862634666238333e-03
 17 -2.40369391291674497e-09
 18  2.43626371032068538e-18
 19  1.05560160175576197e-16
 20 -7.21221434573382495e-16
 21 -2.63083000906227937e-02
 22 -1.82303797097204206e-09
 23 -3.85560039485396341e-16
 24  5.67201286764883588e-16
 25  5.07751771556913447e-03
 26  4.29286523902958310e-16
 27 -6.47027715292179240e-17
 28  1.45054170811137364e-03
 29 -1.57739300524070740e-09
 30 -1.31014528237725518e-16
 31  6.59761719443090117e-17
 32  2.22325963794856054e-16
 33 -1.26089160684386610e-15
 34  3.07713406346456708e-15
 35  1.44827075354401222e-16
 36  8.57509058595116703e-16
 37 -2.55142833275256858e-02
 38 -6.81899773142275599e-16
 39  1.77717298241120029e-16
 40  7.56395056296913782e-16
 41  1.75572458764071738e-16
 42  1.92473229327232017e-16
 43 -2.55142724044733725e-02
 Sym= A
 Ene=  1.36822353639144863e-02
 Spin= Alpha
 Occup=  0.00000000000000000e+00
  1  3.34409399699094820e-02
  2  8.42748054702319310e-02
  3 -1.90699478964872216e-01
  4  3.45555283423941706e-02
  5 -1.16827439066721994e+00
  6 -1.61035032085966479e-01
  7  2.34622697226692151e-07
  8  2.75291834127837501e-16
  9 -1.15443373836567026e-01
 10  2.05424819138400637e-07
 11  5.15228940927634048e-16
 12 -3.30491148978924509e-01
 13  4.24969496903228499e-07
 14  3.26160346175404963e-16
 15 -7.43353289736916191e-04
 16 -1.39310042555375700e-16
 17  4.07703460823838644e-17
 18 -2.27594912003765927e-03
 19 -3.79133417367322801e-09
 20 -9.22582908221108479e-04
 21  3.18200350262330675e-16
 22 -2.26614231365045035e-16
 23 -1.05335433945774465e-02
 24  1.06738351364947476e-08
 25 -1.85759762961055565e-17
 26  1.13455821065028511e-03
 27 -1.66496141255105384e-09
 28 -1.74952070382572429e-17
 29  4.89684495817547419e-18
 30  6.39610957718889854e-04
 31 -2.69402952353180601e-09
 32  3.82657324432192497e-02
 33  9.17883175347055519e-02
 34  9.37595253725998612e-01
 35  1.81116778717868854e-02
 36  2.76967583623722105e-02
 37 -1.60063195438930045e-16
 38  3.82658719165389558e-02
 39  9.17885905577031369e-02
 40  9.37596379195458907e-01
 41  1.81116880538744855e-02
 42 -2.76967519432543274e-02
 43  2.02794271847759846e-17
 Sym= A
 Ene=  8.90951609637876257e-02
 Spin= Alpha
 Occup=  0.00000000000000000e+00
  1  1.71007546976832937e-08
  2  4.58415513667518595e-08
  3 -1.48688823205393455e-07
  4  2.59209683769071523e-07
  5 -1.16024095409815887e-06
  6 -4.15099588319500489e-08
  7 -2.54014553012631150e-01
  8  2.91422026315498816e-16
  9  4.65622182487656360e-08
 10 -1.18858548121328497e-01
 11  9.74515742620253251e-16
 12 -1.88518592423736779e-07
 13 -6.87309626028824061e-01
 14 -5.57020834858022564e-16
 15  2.19589031448285724e-09
 16 -3.44807847754100745e-16
 17 -4.14259707933919798e-16
 18  2.19669614792459235e-09
 19  1.30626242183895557e-03
 20 -1.21586265116152618e-08
 21  1.64692425005503268e-16
 22  4.65631516578865815e-16
 23  1.36719903581599603e-09
 24  2.07521896724421305e-02
 25 -3.62696013110910781e-16
 26  9.58297253993671519e-11
 27  2.31484364022956535e-04
 28  3.40050527124322376e-16
 29  4.82876539927312582e-16
 30  8.58563267783693490e-10
 31  2.81299794371828215e-03
 32  3.34615785753588565e-02
 33  2.23638363019088016e-02
 34  1.63639133323844344e+00
 35  3.21340697716775356e-02
 36  3.46974347984971634e-02
 37 -4.01633953735156555e-16
 38 -3.34616654369197380e-02
 39 -2.23641078389786724e-02
 40 -1.63638970345572154e+00
 41 -3.21339976878966052e-02
 42  3.46973765939695145e-02
 43  8.57673903831373052e-17
 Sym= A
 Ene=  3.56519743351367768e-01
 Spin= Alpha
 Occup=  0.00000000000000000e+00
  1  4.42168362369619326e-08
  2  9.87967864869399440e-08
  3 -5.90173861008052808e-08
  4 -6.04538372972521788e-07
  5  5.97371035896309887e-07
  6 -2.68511245263478575e-07
  7  1.17048979202421050e-01
  8  1.05870749788136342e-15
  9 -3.32862216769102127e-07
 10  3.58364423945604749e-01
 11  1.70244868293241876e-15
 12 -2.81256091615638660e-07
 13  1.20740644337702285e+00
 14 -3.97185228933296488e-15
 15 -2.04897924778067725e-08
 16 -4.26119414793369094e-16
 17  3.86170120152605339e-16
 18 -2.02088430114477582e-08
 19 -3.25092364411781742e-02
 20 -1.87383981737818752e-08
 21  4.90489823503038358e-16
 22 -2.57221268732224977e-16
 23 -1.62016827820009336e-08
 24  1.28613017954914310e-01
 25 -1.33398357621237551e-16
 26  1.44158852562093898e-09
 27 -1.27063696972764834e-02
 28 -1.72764750607450067e-16
 29  4.60319804275413991e-16
 30  7.20797951780978176e-09
 31  3.79003253630280602e-03
 32 -1.23808796238042473e-01
 33 -1.46321346929710061e+00
 34  5.37223188284496667e-01
 35  4.45194760780747850e-02
 36  9.22103700481431560e-02
 37 -5.41885192592558917e-16
 38  1.23809117252329723e-01
 39  1.46321694971342220e+00
 40 -5.37225986552080426e-01
 41 -4.45194943092489803e-02
 42  9.22103297120173138e-02
 43 -5.63930605145246613e-16
 Sym= A
 Ene=  4.04352014269738269e-01
 Spin= Alpha
 Occup=  0.00000000000000000e+00
  1 -3.57865889526302883e-02
  2 -7.84173997295618125e-02
  3 -2.29317571153740268e-02
  4  8.57298284353148254e-01
  5  5.84113049884608659e-01
  6 -6.14951621636807694e-02
  7  1.37104153456243379e-08
  8  3.03149098194945368e-15
  9 -3.60862679491085261e-02
 10  5.56475319788496648e-07
 11  6.47766307653142185e-15
 12  1.42625401120289741e+00
 13  2.45749666004631993e-06
 14 -1.19161835310108247e-14
 15  1.90425824430127261e-02
 16  1.57913112644953776e-16
 17  8.01433677117950471e-18
 18  4.74961885593188672e-03
 19 -4.78506964406107683e-08
 20 -6.95560454506337772e-02
 21 -6.66686136285012406e-16
 22  1.40745940829237923e-16
 23  1.28883781069679873e-04
 24  3.13467937827488027e-07
 25  3.73061461491192841e-17
 26 -7.12057383830041069e-03
 27 -2.25342666712399649e-08
 28  8.92944479383459901e-19
 29  1.09735075767446209e-17
 30 -1.46682501030433142e-02
 31  1.53364671116781632e-08
 32 -8.62282683423065827e-02
 33 -1.47724986017883353e+00
 34  3.91504599711419266e-01
 35  6.63040461861868630e-02
 36  6.77670435533000715e-02
 37  5.62465802412277127e-17
 38 -8.62279821822101999e-02
 39 -1.47724545898783854e+00
 40  3.91505319613922154e-01
 41  6.63037757486820145e-02
 42 -6.77666177806405812e-02
 43  2.49402327838517318e-16
 Sym= A
 Ene=  4.24581396602508598e-01
 Spin= Alpha
 Occup=  0.00000000000000000e+00
  1  8.17016587937940800e-17
  2 -2.80447976013540949e-17
  3  2.02871358454176207e-15
  4 -7.32389684676194955e-15
  5  2.20920197032429690e-14
  6  1.84581786314033133e-14
  7  2.65554024122631121e-15
  8  3.18106633453635046e-01
  9  4.00485493683859129e-14
 10 -3.17086617220930011e-16
 11  7.00804074591396597e-01
 12 -4.57010423251923065e-14
 13 -1.06399255702917540e-14
 14 -1.23330904819448794e+00
 15  1.02037383554021096e-16
 16  6.68400123175953622e-03
 17  2.39712442159457626e-09
 18  4.59695156687205192e-16
 19  1.26502975968809033e-15
 20 -8.64697894277198123e-16
 21 -7.24667339941843010e-03
 22  1.89521505493813267e-09
 23  3.38157580670086801e-16
 24 -1.88637845967735902e-15
 25 -1.81822070943162082e-03
 26 -3.89337295109923257e-16
 27 -4.15704283872491115e-16
 28 -6.77453642634444852e-04
 29 -7.50235458148552992e-11
 30 -2.95555431277510044e-16
 31  1.20635120405001973e-15
 32 -2.15460319551299128e-15
 33 -2.59221119737379937e-14
 34  2.47476787836970503e-14
 35  1.65056873783852225e-16
 36 -5.13532495722283243e-16
 37  3.67200983452659188e-03
 38 -3.73401868484128683e-15
 39 -4.01120914296183581e-14
 40  2.05302374803166331e-14
 41  2.82949761117988068e-15
 42 -6.42720656645178292e-16
 43  3.67197860861521574e-03
 Sym= A
 Ene=  4.34157536486354578e-01
 Spin= Alpha
 Occup=  0.00000000000000000e+00
  1  6.06168656365905275e-03
  2  1.43773759686307793e-02
  3  9.01203657302300509e-03
  4 -1.89388168230122778e-01
  5 -2.14152004830810982e-01
  6 -3.34698699981027692e-01
  7  1.87464671535084539e-08
  8  1.62225355229944280e-14
  9 -7.62902032980459333e-01
 10 -4.18593530686171582e-07
 11  3.72621801786485290e-14
 12  7.02979396008226787e-01
 13 -2.38139929150807688e-06
 14 -6.44995113059849419e-14
 15 -4.87214121907548169e-03
 16  6.36075348542336827e-16
 17 -1.29273568109127405e-16
 18 -1.02913488064401773e-02
 19  4.44338635915891834e-08
 20  1.03078315464588972e-02
 21 -5.05591673804772232e-17
 22 -1.39074949728794335e-16
 23 -2.84390545064408084e-04
 24 -2.88661107105038528e-07
 25 -1.30304005639684755e-16
 26  4.39973096172089663e-03
 27  2.73790022221933788e-08
 28 -6.62573257785106153e-18
 29 -3.34098699659849546e-17
 30  8.24218687993332443e-03
 31 -1.47017311786746388e-08
 32  8.29466645410533027e-02
 33  8.25612752039496689e-01
 34 -5.59992496009657059e-01
 35 -3.22357484808416250e-02
 36 -1.05708780676776158e-02
 37 -4.34982185019803548e-17
 38  8.29464247332225846e-02
 39  8.25608727182825630e-01
 40 -5.59992971617499946e-01
 41 -3.22354656373296869e-02
 42  1.05704700685222974e-02
 43 -8.44217454027401463e-17
 Sym= A
 Ene=  5.67986338917839673e-01
 Spin= Alpha
 Occup=  0.00000000000000000e+00
  1  3.86884290058215812e-08
  2  7.89098943029940308e-08
  3  3.62100152667494218e-08
  4 -1.75835872014630519e-06
  5  5.31445612916019860e-06
  6  3.38033973624033302e-08
  7  3.52828041416202165e-01
  8 -9.82201404129126166e-16
  9  4.24190080835600293e-07
 10  7.58375607834396503e-01
 11 -3.22783993945871009e-15
 12  1.64274221143794259e-06
 13 -2.03806500305426264e+00
 14  3.73745421587503454e-15
 15  2.90017449850725948e-08
 16  1.28412275822844130e-16
 17 -1.82830872267164988e-16
 18  1.20579246908649866e-08
 19  1.05422994420073697e-02
 20 -1.24330393592924094e-07
 21  1.19228137154167306e-16
 22 -4.91390098412804330e-16
 23 -2.48288134938252840e-08
 24 -5.53155559321716200e-02
 25  3.33193850993908701e-17
 26 -1.78912242042297284e-08
 27  8.57430933437595077e-04
 28 -1.31489727048749270e-16
 29  1.18392973765934122e-16
 30 -3.77371848312561660e-08
 31 -1.89289915777949604e-03
 32 -6.17637377258605028e-02
 33 -1.00693284400427102e-01
 34  1.62609285360822575e+00
 35 -2.84690865367975103e-02
 36 -2.87461582171586669e-02
 37  2.11740451722516128e-16
 38  6.17637216682321716e-02
 39  1.00688950586293735e-01
 40 -1.62609395660283318e+00
 41  2.84693894871869586e-02
 42 -2.87464793915410133e-02
 43  9.88284495207655738e-16
 Sym= A
 Ene=  5.94469448933680034e-01
 Spin= Alpha
 Occup=  0.00000000000000000e+00
  1 -5.18858927947788082e-02
  2 -1.07442462280125883e-01
  3 -9.99437321346308416e-02
  4  2.26030973071323826e+00
  5 -4.83241783892609345e+00
  6  7.21295161136751295e-02
  7  3.96155305472676185e-07
  8  2.15364766941850561e-15
  9 -2.46480883247189499e-03
 10  7.27184243196806322e-07
 11  4.90999840380854571e-16
 12 -1.24394807273921715e+00
 13 -2.43346717856781682e-06
 14 -2.48378038137474024e-15
 15 -1.62923964221832161e-02
 16  2.90360373442570729e-16
 17 -4.41658199946321396e-17
 18 -5.64385453402017900e-03
 19  9.38140581867021924e-09
 20  5.44395839281743218e-02
 21 -1.89329056195645102e-16
 22  7.88522845924383681e-16
 23  3.14160741727970714e-03
 24 -8.41811070224703239e-08
 25  6.89267390584289978e-17
 26  5.03216289956334197e-03
 27 -4.83992631697994042e-09
 28 -1.98058491564122251e-19
 29 -5.89640961980146113e-17
 30  1.11436191358216721e-02
 31 -2.62474804832462617e-09
 32 -2.20821360821216485e-02
 33  9.04840881600390223e-01
 34  9.71069583404375436e-01
 35 -6.58379903305366110e-02
 36 -5.64562396328411042e-02
 37  7.71915042332670013e-16
 38 -2.20819952092356983e-02
 39  9.04840979725010985e-01
 40  9.71064570144873795e-01
 41 -6.58379193308047672e-02
 42  5.64561701487527462e-02
 43  6.78414780596585369e-16
 Sym= A
 Ene=  1.16555681349462792e+00
 Spin= Alpha
 Occup=  0.00000000000000000e+00
  1  3.59468993660057648e-03
  2  9.30762448839322042e-03
  3 -3.65425086723361603e-02
  4 -7.93026011067565623e-02
  5  9.16190155852032895e-01
  6  8.19022729328610505e-02
  7 -1.64875003296792070e-08
  8  1.75101760561451716e-15
  9  1.53388643366778626e-01
 10  1.60804976496104929e-07
 11  8.35229700911544770e-16
 12  5.70324578590297948e-01
 13  2.70744529147341400e-07
 14  1.61401302278247987e-15
 15 -6.96427825888042314e-04
 16  1.16067661665464278e-16
 17 -6.06989064469287218e-16
 18 -1.17047167418381816e-02
 19  7.53635509705687226e-10
 20  1.37872538675178846e-01
 21 -8.04015781046851048e-15
 22 -4.04704539406788499e-14
 23 -5.07778006014659056e-01
 24  2.40563799873849793e-07
 25 -3.94529040405821899e-17
 26 -3.59300557635815199e-03
 27 -2.91184597026623270e-09
 28 -4.65757518106575441e-17
 29  8.76639839726300480e-16
 30 -7.97736816231544958e-03
 31  3.18375258891366334e-08
 32  3.89862513028776114e-02
 33 -5.88787554889614206e-01
 34 -4.84945744322744648e-02
 35 -3.06509534274089668e-01
 36  2.99205830290851515e-01
 37 -3.68857198444384046e-14
 38  3.89862502354140980e-02
 39 -5.88786673456039522e-01
 40 -4.84944050486421779e-02
 41 -3.06509880866313256e-01
 42 -2.99205706477845446e-01
 43  2.83497529151591400e-14
 Sym= A
 Ene=  1.18513544753513989e+00
 Spin= Alpha
 Occup=  0.00000000000000000e+00
  1  1.96722005806743745e-16
  2  3.99184041542383921e-16
  3  3.70448202304604590e-16
  4 -1.30886531272258212e-14
  5  7.62666813447624045e-14
  6  5.32560317938631574e-15
  7  9.95759142893661303e-16
  8  3.05656025188880981e-08
  9  1.12665338405399782e-14
 10 -5.00615990988964950e-15
 11 -1.43619791917015122e-07
 12  4.44591122696536880e-14
 13 -4.58749861785654023e-15
 14  1.97424482770246482e-07
 15 -4.75779936659697523e-17
 16  3.51812683340427326e-09
 17  8.51368291100047109e-03
 18 -1.08454111304572122e-15
 19  1.11425909351810882e-16
 20  1.21017366909885247e-14
 21 -2.74395949677427402e-07
 22  5.41126059639387980e-01
 23 -3.90548067430898521e-14
 24 -4.82207976263231574e-15
 25  1.50213310746332598e-08
 26 -1.77062523315307616e-16
 27  3.82101374117003323e-16
 28 -3.91702344373046442e-09
 29 -1.00382939502063964e-02
 30 -7.92111409515308881e-16
 31 -1.56628891743210452e-16
 32  2.09969677635867483e-15
 33 -3.66597526923273642e-14
 34 -4.91087644451034584e-15
 35 -2.53625598698554240e-14
 36  2.00063489791530686e-14
 37  4.24255722803614954e-01
 38  5.75204298968893926e-15
 39 -5.46388699548837222e-14
 40 -4.64008650706213828e-15
 41 -2.07529899497896704e-14
 42 -2.42214714317384807e-14
 43 -4.24256170101518504e-01
 Sym= A
 Ene=  1.29454416716862131e+00
 Spin= Alpha
 Occup=  0.00000000000000000e+00
  1  1.73440176448910914e-16
  2  5.55982590713207311e-16
  3 -9.91103111150188293e-16
  4 -7.97751415129752687e-15
  5  2.18193018749194185e-14
  6 -3.56671559137208826e-16
  7 -2.42244997209425388e-15
  8 -9.96329342965460857e-02
  9  7.23629498626347609e-16
 10  5.91753929313734443e-15
 11 -5.10274424108655283e-02
 12  1.09789721729532158e-14
 13  4.92569504811943888e-15
 14 -2.10860157148418603e-01
 15 -2.50696755551361884e-17
 16  9.90556636176550967e-04
 17  8.24601006397283640e-09
 18 -1.60810668145724359e-16
 19 -5.59960217486730094e-17
 20  1.27806133337342764e-15
 21  6.74967432635241504e-01
 22  2.02826814127052435e-07
 23 -5.28919383211742530e-15
 24  5.68103685835605912e-15
 25  4.40216774682033064e-03
 26  3.04963730682156471e-16
 27 -1.67442076306561856e-16
 28  1.34345866628383399e-02
 29 -2.49939117350336023e-08
 30  6.62801996567879713e-17
 31  3.67750600355385339e-16
 32  2.39892036238916137e-15
 33 -1.94167854036236063e-14
 34 -1.50730799774600410e-15
 35 -4.28203939971476029e-15
 36  4.01863098435932840e-15
 37  3.80673118458051241e-01
 38 -3.33598996862791372e-15
 39  4.16724998884709164e-15
 40 -4.68503687333883472e-15
 41 -7.02438226141506693e-15
 42  4.91786329540162644e-17
 43  3.80672765263737445e-01
 Sym= A
 Ene=  1.52003165881185631e+00
 Spin= Alpha
 Occup=  0.00000000000000000e+00
  1  1.74358043324377424e-08
  2  6.87583234409559222e-08
  3 -9.55376465200713838e-07
  4  3.56256369333706649e-06
  5  2.62702786865360734e-06
  6 -2.31657943009734686e-07
  7 -1.19314303218226003e-01
  8 -1.25889084415110094e-15
  9  1.82621393854110279e-06
 10  9.36250901560553572e-01
 11  9.78197455532352984e-16
 12  1.30916363602037253e-06
 13  9.56180198512863844e-01
 14 -1.10639155893191382e-15
 15 -2.53461912795107376e-09
 16 -1.46683962093527143e-16
 17  8.40156844948118324e-17
 18 -6.72279640451052931e-10
 19 -9.79867867494895600e-03
 20 -1.14482051412332960e-06
 21 -6.25485663066596806e-15
 22  1.53437489090139194e-15
 23 -1.74773384143894211e-07
 24  1.21136521773772854e+00
 25 -2.88534174643299940e-16
 26 -8.80245209691659942e-08
 27 -5.47867638076052418e-02
 28 -5.16285380488010209e-17
 29 -8.54525011844952185e-18
 30 -1.60334361566481948e-07
 31  3.79231405854805331e-02
 32  3.72453962561260787e-01
 33 -2.19250897300812575e+00
 34  5.17875722175175746e-01
 35  4.30364309100213505e-01
 36  1.82114383627709875e-01
 37  2.59057226196404336e-15
 38 -3.72453427828769223e-01
 39  2.19250139203055738e+00
 40 -5.17875200910841160e-01
 41 -4.30362795051676683e-01
 42  1.82112594003170869e-01
 43 -1.90944354849202678e-15
 Sym= A
 Ene=  1.62805399255745264e+00
 Spin= Alpha
 Occup=  0.00000000000000000e+00
  1 -1.54179127952361172e-02
  2 -5.19059958804648433e-02
  3  4.03344133663484483e-01
  4 -7.46940137741138988e-01
  5 -1.83190787866678839e+00
  6  1.01783185164539339e-01
  7  2.93979426823440908e-08
  8 -2.10255856156010448e-16
  9 -5.30823740227616581e-01
 10 -8.95909088220676442e-07
 11  4.42787165557063260e-16
 12 -9.34416123504302809e-01
 13  5.16008490517580331e-07
 14 -1.02129148461420304e-15
 15 -5.74220849690149689e-03
 16  7.00500182065357348e-17
 17 -2.94877692340301623e-17
 18  1.54135835495589893e-03
 19 -8.62830454797768265e-10
 20  1.11753520433145415e+00
 21 -8.35415346782648078e-16
 22  2.45676060851270157e-16
 23  2.90722403297713650e-01
 24  1.73019308601434793e-07
 25  1.43184659268097826e-16
 26  3.82164389604098265e-02
 27  3.07875350672851257e-08
 28 -2.65915647324761246e-17
 29 -2.15731252238440154e-16
 30  5.77931083697914641e-02
 31 -3.26159661341123823e-08
 32 -3.55576792688273913e-01
 33  2.09981414910408670e+00
 34 -2.00191383652287253e-01
 35 -1.50151597429281136e-01
 36 -2.38273991583479838e-01
 37 -2.20241455654332328e-16
 38 -3.55577526610897920e-01
 39  2.09981387782409890e+00
 40 -2.00191872545497751e-01
 41 -1.50151566980127132e-01
 42  2.38272500069700077e-01
 43  2.12316482109875100e-15
 Sym= A
 Ene=  1.74415111584137517e+00
 Spin= Alpha
 Occup=  0.00000000000000000e+00
  1 -3.06699454074143583e-09
  2 -2.78546985481045257e-09
  3 -2.18986757685618927e-07
  4  1.33175228505928079e-06
  5 -8.28804715539109433e-07
  6 -1.06953640230157404e-07
  7 -1.69675664419547872e-01
  8 -2.05935612412381294e-16
  9  8.06738832252740213e-07
 10  3.19196045984737387e-01
 11  1.10307534118927627e-15
 12 -5.06146230689179356e-07
 13 -3.71430846578346574e-01
 14  1.53005432495355729e-15
 15 -4.16517069111888955e-09
 16 -2.39394515402499126e-16
 17 -2.78466403859681123e-16
 18 -1.79855639955298429e-08
 19 -1.28609660614976782e-02
 20  4.96355269508856284e-07
 21  4.80811819841441901e-16
 22 -1.59161013533417249e-16
 23 -3.10156765631260923e-08
 24  4.67185496088253216e-01
 25  5.71271512213573589e-17
 26 -3.29744280532542837e-08
 27 -2.05278352078756589e-02
 28 -1.82709670603445263e-16
 29  1.83196941091275745e-16
 30 -2.66503796931033161e-08
 31  2.26823826305636751e-02
 32  1.26073368182147122e-01
 33 -4.81981562814195796e-01
 34  3.71859062840771193e-01
 35 -5.20310450273940295e-01
 36  5.81695804118961712e-01
 37 -1.98995168906265379e-15
 38 -1.26073409324578140e-01
 39  4.81981263577630215e-01
 40 -3.71858739756681211e-01
 41  5.20311228684776639e-01
 42  5.81695181462179467e-01
 43 -3.03357299785200192e-15
 Sym= A
 Ene=  1.97420894062211705e+00
 Spin= Alpha
 Occup=  0.00000000000000000e+00
  1  1.41863400310541614e-02
  2  6.15258923605031399e-02
  3 -7.99244632272173794e-01
  4  2.56113784312386183e+00
  5 -1.36128169551623213e-01
  6 -4.07481297159581646e-01
  7 -5.59691890298349096e-08
  8 -8.23969549439245264e-16
  9  1.32015004541356751e+00
 10  1.56826349679889566e-06
 11  1.21301923296031935e-15
 12 -6.81521662064386857e-02
 13 -3.24332403934199389e-07
 14 -2.87104212658011504e-16
 15  3.05111236752612447e-03
 16 -2.91025407237724759e-16
 17 -8.55079479961631460e-17
 18  1.78312106940498017e-03
 19  3.82835228323645869e-08
 20  1.41992421596207619e-01
 21  2.96388935743243115e-15
 22  4.59066014897546247e-15
 23 -2.31633522656882834e-01
 24 -2.72680611806764442e-07
 25  2.65747636058462993e-17
 26 -6.56961918381621518e-02
 27 -2.86890108691568750e-08
 28  1.75618905940000277e-16
 29  2.04489767354244353e-16
 30 -1.43699310027204402e-01
 31  4.34678811342388677e-08
 32  6.47309509247186554e-01
 33 -1.88549307452354586e+00
 34  4.95347346670488187e-01
 35  6.05412862117514661e-01
 36  5.57698830693560632e-01
 37 -5.05084455159034498e-15
 38  6.47310523437812257e-01
 39 -1.88549199850394755e+00
 40  4.95347336736942645e-01
 41  6.05411053244078623e-01
 42 -5.57697777178629228e-01
 43  2.98001188830177114e-15
 Sym= A
 Ene=  2.04861547563953916e+00
 Spin= Alpha
 Occup=  0.00000000000000000e+00
  1  3.81270867966113476e-16
  2  9.40906603069692626e-16
  3 -4.62883619832021811e-15
  4  2.80837006640489294e-15
  5 -1.09228567312630984e-15
  6 -4.86800416331586111e-15
  7 -6.86030452273026479e-15
  8 -3.24171444487762750e-01
  9  4.39433987255927733e-15
 10  2.25218144940255397e-14
 11  1.63069054779797717e-01
 12 -2.05263238202700724e-15
 13 -7.62445353878586066e-15
 14 -4.82620549692159895e-01
 15 -1.64041168716410732e-16
 16  9.48010281914004986e-03
 17 -3.29377370389619728e-08
 18 -3.27966486187988025e-17
 19 -5.96437878540800470e-16
 20  4.57255578783812616e-16
 21 -8.79087940744783691e-01
 22  3.50473984862410511e-06
 23 -1.85232752441914073e-15
 24 -2.87272229737432050e-15
 25 -3.95659311246027937e-03
 26 -9.44269103001001256e-18
 27 -1.04174706625160883e-15
 28 -1.45806704099088729e-02
 29 -5.01293662670593529e-08
 30  2.26598037032570068e-16
 31  1.91479647680489646e-16
 32  4.92784928699383798e-15
 33 -1.33047740283193314e-14
 34  5.82831728489538808e-15
 35  5.30957386626687049e-15
 36  6.30008300080845923e-15
 37  7.54708141108271113e-01
 38 -3.55793914462183955e-15
 39  1.26103582787958066e-14
 40 -5.08649632523330008e-15
 41 -5.34804941871884562e-15
 42  1.03079844178964289e-14
 43  7.54712860687030807e-01
 Sym= A
 Ene=  2.09987214895560070e+00
 Spin= Alpha
 Occup=  0.00000000000000000e+00
  1  2.28201743278336093e-16