
    -----------------------------------------------------------------------
          Psi4: An Open-Source Ab Initio Electronic Structure Package
                               Psi4 1.3.2 release

                         Git: Rev {HEAD} ecbda83 


    R. M. Parrish, L. A. Burns, D. G. A. Smith, A. C. Simmonett,
    A. E. DePrince III, E. G. Hohenstein, U. Bozkaya, A. Yu. Sokolov,
    R. Di Remigio, R. M. Richard, J. F. Gonthier, A. M. James,
    H. R. McAlexander, A. Kumar, M. Saitow, X. Wang, B. P. Pritchard,
    P. Verma, H. F. Schaefer III, K. Patkowski, R. A. King, E. F. Valeev,
    F. A. Evangelista, J. M. Turney, T. D. Crawford, and C. D. Sherrill,
    J. Chem. Theory Comput. 13(7) pp 3185--3197 (2017).
    (doi: 10.1021/acs.jctc.7b00174)


                         Additional Contributions by
    P. Kraus, H. Kruse, M. H. Lechner, M. C. Schieber, R. A. Shaw,
    A. Alenaizan, R. Galvelis, Z. L. Glick, S. Lehtola, and J. P. Misiewicz

    -----------------------------------------------------------------------


    Psi4 started on: Wednesday, 05 February 2020 01:52PM

    Process ID: 1837
    Host:       rh05314.villa-bosch.de
    PSIDATADIR: /media/miniconda3/envs/p4env/share/psi4
    Memory:     500.0 MiB
    Threads:    1
    
  ==> Input File <==

--------------------------------------------------------------------------

# PYTHONPATH must include directory above plugin directory.
#     Define either externally or here, then import plugin.
import psixas

molecule {
  N   -1.22651784160217      0.40019879988830      0.01704879881164
  H   -0.43885155782371      0.15100232225883      0.60864221052405
  H   -0.88355924463589      1.09440986479077     -0.64102616291803
  H   -1.44986135593823     -0.42747098693791     -0.52829484641767
symmetry c1
}

set {
  basis def2-tzvp
}


set scf {
 reference uks
 scf_type DF
}

energy('CAM-B3LYP')
--------------------------------------------------------------------------

*** tstart() called on rh05314.villa-bosch.de
*** at Wed Feb  5 13:52:34 2020

   => Loading Basis Set <=

    Name: DEF2-TZVP
    Role: ORBITAL
    Keyword: BASIS
    atoms 1   entry N          line   156 file /media/miniconda3/envs/p4env/share/psi4/basis/def2-tzvp.gbs 
    atoms 2-4 entry H          line    15 file /media/miniconda3/envs/p4env/share/psi4/basis/def2-tzvp.gbs 


         ---------------------------------------------------------
                                   SCF
               by Justin Turney, Rob Parrish, Andy Simmonett
                          and Daniel G. A. Smith
                              UKS Reference
                        1 Threads,    500 MiB Core
         ---------------------------------------------------------

  ==> Geometry <==

    Molecular point group: c1
    Full point group: C1

    Geometry (in Angstrom), charge = 0, multiplicity = 1:

       Center              X                  Y                   Z               Mass       
    ------------   -----------------  -----------------  -----------------  -----------------
         N           -0.053703241151     0.022649891445     0.036214781014    14.003074004430
         H            0.733963042628    -0.226546586185     0.627808192726     1.007825032230
         H            0.289255355816     0.716860956347    -0.621860180716     1.007825032230
         H           -0.277046755487    -0.805019895381    -0.509128864215     1.007825032230

  Running in c1 symmetry.

  Rotational constants: A =      9.87927  B =      9.87883  C =      6.31326 [cm^-1]
  Rotational constants: A = 296172.97164  B = 296159.82690  C = 189266.91797 [MHz]
  Nuclear repulsion =   11.911859002588059

  Charge       = 0
  Multiplicity = 1
  Electrons    = 10
  Nalpha       = 5
  Nbeta        = 5

  ==> Algorithm <==

  SCF Algorithm Type is DF.
  DIIS enabled.
  MOM disabled.
  Fractional occupation disabled.
  Guess Type is SAD.
  Energy threshold   = 1.00e-06
  Density threshold  = 1.00e-06
  Integral threshold = 0.00e+00

  ==> Primary Basis <==

  Basis Set: DEF2-TZVP
    Blend: DEF2-TZVP
    Number of shells: 23
    Number of basis function: 49
    Number of Cartesian functions: 54
    Spherical Harmonics?: true
    Max angular momentum: 3

  ==> DFT Potential <==

   => Composite Functional: CAM-B3LYP <= 

    CAM-B3LYP Hyb-GGA Exchange-Correlation Functional

    T. Yanai, D. P. Tew, and N. C. Handy, Chem. Phys. Lett. 393, 51 (2004)

    Deriv               =              1
    GGA                 =           TRUE
    Meta                =          FALSE

    Exchange Hybrid     =           TRUE
    MP2 Hybrid          =          FALSE

   => Exchange Functionals <=

    0.3500         Becke 88 [omega = 0.3300]
    0.4600   Short-range recipe for exchange GGA functionals [omega = 0.3300]

   => Exact (HF) Exchange <=

    0.4600            HF,LR [omega = 0.3300]
    0.1900               HF 

   => Correlation Functionals <=

    0.1900   Vosko, Wilk & Nusair (VWN5)
    0.8100   Lee, Yang & Parr

   => Molecular Quadrature <=

    Radial Scheme          =       TREUTLER
    Pruning Scheme         =           FLAT
    Nuclear Scheme         =       TREUTLER

    BS radius alpha        =              1
    Pruning alpha          =              1
    Radial Points          =             75
    Spherical Points       =            302
    Total Points           =          89314
    Total Blocks           =            721
    Max Points             =            255
    Max Functions          =             49

   => Loading Basis Set <=

    Name: (DEF2-TZVP AUX)
    Role: JKFIT
    Keyword: DF_BASIS_SCF
    atoms 1   entry N          line   263 file /media/miniconda3/envs/p4env/share/psi4/basis/def2-tzvp-jkfit.gbs 
    atoms 2-4 entry H          line    23 file /media/miniconda3/envs/p4env/share/psi4/basis/def2-tzvp-jkfit.gbs 

  ==> Pre-Iterations <==

   -------------------------------------------------------
    Irrep   Nso     Nmo     Nalpha   Nbeta   Ndocc  Nsocc
   -------------------------------------------------------
     A         49      49       0       0       0       0
   -------------------------------------------------------
    Total      49      49       5       5       5       0
   -------------------------------------------------------

  ==> Integral Setup <==

  ==> DiskDFJK: Density-Fitted J/K Matrices <==

    J tasked:                  Yes
    K tasked:                  Yes
    wK tasked:                 Yes
    Omega:               3.300E-01
    OpenMP threads:              1
    Integrals threads:           1
    Memory [MiB]:              254
    Algorithm:                Core
    Integral Cache:           NONE
    Schwarz Cutoff:          1E-12
    Fitting Condition:       1E-10

   => Auxiliary Basis Set <=

  Basis Set: (DEF2-TZVP AUX)
    Blend: DEF2-TZVP-JKFIT
    Number of shells: 43
    Number of basis function: 131
    Number of Cartesian functions: 153
    Spherical Harmonics?: true
    Max angular momentum: 4

  Cached 100.0% of DFT collocation blocks in 0.118 [GiB].

  Minimum eigenvalue in the overlap matrix is 5.0050316252E-03.
  Using Symmetric Orthogonalization.

  SCF Guess: Superposition of Atomic Densities via on-the-fly atomic UHF.

  ==> Iterations <==

                           Total Energy        Delta E     RMS |[F,P]|

   @DF-UKS iter SAD:   -56.09934443376538   -5.60993e+01   0.00000e+00 
   @DF-UKS iter   1:   -56.35214436035793   -2.52800e-01   1.46124e-02 DIIS
   @DF-UKS iter   2:   -56.29732460066743    5.48198e-02   1.58098e-02 DIIS
   @DF-UKS iter   3:   -56.55429185177398   -2.56967e-01   4.48876e-04 DIIS
   @DF-UKS iter   4:   -56.55457950351771   -2.87652e-04   7.05677e-05 DIIS
   @DF-UKS iter   5:   -56.55458550507382   -6.00156e-06   1.17715e-05 DIIS
   @DF-UKS iter   6:   -56.55458572054241   -2.15469e-07   1.61784e-06 DIIS
   @DF-UKS iter   7:   -56.55458572917563   -8.63323e-09   3.65478e-07 DIIS
  Energy and wave function converged.


  ==> Post-Iterations <==

   @Spin Contamination Metric:   1.243449788E-14
   @S^2 Expected:                0.000000000E+00
   @S^2 Observed:                1.243449788E-14
   @S   Expected:                0.000000000E+00
   @S   Observed:                0.000000000E+00

    Orbital Energies [Eh]
    ---------------------

    Alpha Occupied:                                                       

       1A    -14.364022     2A     -0.931973     3A     -0.528430  
       4A     -0.528384     5A     -0.336004  

    Alpha Virtual:                                                        

       6A      0.063465     7A      0.147199     8A      0.147208  
       9A      0.347599    10A      0.347622    11A      0.403608  
      12A      0.506975    13A      0.555303    14A      0.575624  
      15A      0.575665    16A      0.969643    17A      0.969665  
      18A      1.202400    19A      1.308204    20A      1.308230  
      21A      1.674709    22A      1.790207    23A      1.790217  
      24A      1.853450    25A      2.030002    26A      2.089517  
      27A      2.089552    28A      2.369159    29A      2.394400  
      30A      2.394472    31A      2.485709    32A      2.547760  
      33A      2.547909    34A      3.077625    35A      3.300713  
      36A      3.300848    37A      4.114603    38A      4.356077  
      39A      4.356186    40A      4.488990    41A      4.665292  
      42A      4.665348    43A      4.677623    44A      4.931642  
      45A      4.931712    46A      5.448154    47A      5.448236  
      48A      5.793195    49A     31.533231  

    Beta Occupied:                                                        

       1A    -14.364022     2A     -0.931973     3A     -0.528430  
       4A     -0.528384     5A     -0.336004  

    Beta Virtual:                                                         

       6A      0.063465     7A      0.147199     8A      0.147208  
       9A      0.347599    10A      0.347622    11A      0.403608  
      12A      0.506975    13A      0.555303    14A      0.575624  
      15A      0.575665    16A      0.969643    17A      0.969665  
      18A      1.202400    19A      1.308204    20A      1.308230  
      21A      1.674709    22A      1.790207    23A      1.790217  
      24A      1.853450    25A      2.030002    26A      2.089517  
      27A      2.089552    28A      2.369159    29A      2.394400  
      30A      2.394472    31A      2.485709    32A      2.547760  
      33A      2.547909    34A      3.077625    35A      3.300713  
      36A      3.300848    37A      4.114603    38A      4.356077  
      39A      4.356186    40A      4.488990    41A      4.665292  
      42A      4.665348    43A      4.677623    44A      4.931642  
      45A      4.931712    46A      5.448154    47A      5.448236  
      48A      5.793195    49A     31.533231  

    Final Occupation by Irrep:
              A 
    DOCC [     5 ]
    SOCC [     0 ]

  @DF-UKS Final Energy:   -56.55458572917563

   => Energetics <=

    Nuclear Repulsion Energy =             11.9118590025880593
    One-Electron Energy =                 -99.6328056302191669
    Two-Electron Energy =                  36.9311381316491705
    DFT Exchange-Correlation Energy =      -5.7647772331936951
    Empirical Dispersion Energy =           0.0000000000000000
    VV10 Nonlocal Energy =                  0.0000000000000000
    Total Energy =                        -56.5545857291756349

  UHF NO Occupations:
  HONO-2 :    3  A 2.0000000
  HONO-1 :    4  A 2.0000000
  HONO-0 :    5  A 2.0000000
  LUNO+0 :    6  A 0.0000000
  LUNO+1 :    7  A 0.0000000
  LUNO+2 :    8  A 0.0000000
  LUNO+3 :    9  A 0.0000000


Computation Completed


Properties will be evaluated at   0.000000,   0.000000,   0.000000 [a0]

Properties computed using the SCF density matrix

  Nuclear Dipole Moment: [e a0]
     X:     0.6997      Y:    -0.2951      Z:    -0.4718

  Electronic Dipole Moment: [e a0]
     X:    -0.1591      Y:     0.0670      Z:     0.1073

  Dipole Moment: [e a0]
     X:     0.5406      Y:    -0.2281      Z:    -0.3646     Total:     0.6907

  Dipole Moment: [D]
     X:     1.3739      Y:    -0.5797      Z:    -0.9266     Total:     1.7557


*** tstop() called on rh05314.villa-bosch.de at Wed Feb  5 13:52:37 2020
Module time:
	user time   =       2.23 seconds =       0.04 minutes
	system time =       0.05 seconds =       0.00 minutes
	total time  =          3 seconds =       0.05 minutes
Total time:
	user time   =       2.23 seconds =       0.04 minutes
	system time =       0.05 seconds =       0.00 minutes
	total time  =          3 seconds =       0.05 minutes

    Psi4 stopped on: Wednesday, 05 February 2020 01:52PM
    Psi4 wall time for execution: 0:00:02.49

*** Psi4 exiting successfully. Buy a developer a beer!
