[Molden Format]
[Atoms] (AU)
N    1    7        -0.101484417824       0.042802091602       0.068436017810
H    2    1         1.386989136774      -0.428111002546       1.186385543571
H    3    1         0.546613402813       1.354670877530      -1.175145429881
H    4    1        -0.523542491817      -1.521267127815      -0.962114115933
[GTO]
  1 0
 s    6  1.00
    19730.8006470000         0.0002188798
     2957.8958745000         0.0016960709
      673.2213359500         0.0087954604
      190.6824949400         0.0353593826
       62.2954418980         0.1109578922
       22.6541611820         0.2498297255
 s    2  1.00
        8.9791477428         0.4062389615
        3.6863002370         0.2433821718
 s    1  1.00
        0.8466007680         1.0000000000
 s    1  1.00
        0.3364713377         1.0000000000
 s    1  1.00
        0.1364765367         1.0000000000
 p    4  1.00
       49.2003805100         0.0055552417
       11.3467905370         0.0380523797
        3.4273972411         0.1495367103
        1.1785525134         0.3494930523
 p    1  1.00
        0.4164220497         1.0000000000
 p    1  1.00
        0.1426082601         1.0000000000
 d    1  1.00
        1.6540000000         1.0000000000
 d    1  1.00
        0.4690000000         1.0000000000
 f    1  1.00
        1.0930000000         1.0000000000

  2 0
 s    3  1.00
       34.0613410000         0.0060251978
        5.1235746000         0.0450210940
        1.1646626000         0.2018972600
 s    1  1.00
        0.3272304100         1.0000000000
 s    1  1.00
        0.1030724100         1.0000000000
 p    1  1.00
        0.8000000000         1.0000000000

  3 0
 s    3  1.00
       34.0613410000         0.0060251978
        5.1235746000         0.0450210940
        1.1646626000         0.2018972600
 s    1  1.00
        0.3272304100         1.0000000000
 s    1  1.00
        0.1030724100         1.0000000000
 p    1  1.00
        0.8000000000         1.0000000000

  4 0
 s    3  1.00
       34.0613410000         0.0060251978
        5.1235746000         0.0450210940
        1.1646626000         0.2018972600
 s    1  1.00
        0.3272304100         1.0000000000
 s    1  1.00
        0.1030724100         1.0000000000
 p    1  1.00
        0.8000000000         1.0000000000

[5D]
[9G]

[MO]
 Sym= A
 Ene= -1.55389847191147101e+01
 Spin= Alpha
 Occup=  1.00000000000000000e+00
  1  4.48955675176815727e-01
  2  6.30200852676519596e-01
  3  2.01490513098480095e-02
  4 -7.42299833326451244e-03
  5  5.12938946375924004e-03
  6  1.43668417542635002e-03
  7 -6.06285171805416925e-04
  8 -9.68980618711028411e-04
  9 -7.52855819962901804e-04
 10  3.17080992931992453e-04
 11  5.07583617449462363e-04
 12  6.65609170657851623e-04
 13 -2.80858982249746912e-04
 14 -4.48905068799685986e-04
 15  2.66478881233066838e-07
 16  2.57883701526395993e-06
 17 -9.43754893253286070e-07
 18 -1.57275754377402087e-06
 19  1.60744699650093896e-06
 20  4.85066980567407098e-06
 21  4.26673798575474247e-05
 22 -1.76891867358193898e-05
 23 -2.60111335727498547e-05
 24  2.66652177742039803e-05
 25  5.67380180401400313e-05
 26  7.12564792183447045e-05
 27  1.52308317584432025e-05
 28  2.06668607037862814e-04
 29 -1.65101259709913071e-04
 30  3.86948620627005404e-05
 31 -2.33510101421356975e-05
 32  1.51700484742335465e-04
 33 -1.29063176752111656e-05
 34 -8.56612100237409604e-04
 35  2.00887661033725468e-04
 36 -6.90106995936584812e-05
 37  7.71891771354586947e-05
 38  1.51799409624419658e-04
 39 -1.26193545785884101e-05
 40 -8.56620861584955393e-04
 41  1.16584869567332291e-04
 42  1.09552477667887324e-04
 43 -1.59382435302684157e-04
 44  1.51524380969123403e-04
 45 -1.33657020175872638e-05
 46 -8.56610253655409556e-04
 47  9.32742155349140658e-06
 48 -1.78845223553217997e-04
 49 -1.38335460892335699e-04
 Sym= A
 Ene= -1.13875212430047879e+00
 Spin= Alpha
 Occup=  1.00000000000000000e+00
  1 -9.19363807611267292e-02
  2 -2.14648793337839622e-01
  3  3.12489560931327959e-01
  4  4.05814975157427593e-01
  5  1.13926785508093500e-01
  6  4.38378537086319409e-02
  7 -1.85208917219270054e-02
  8 -2.95714120653814069e-02
  9  4.13263485018747281e-02
 10 -1.74465608748130621e-02
 11 -2.78736314933967187e-02
 12  5.20266444356154521e-03
 13 -2.19699127705523436e-03
 14 -3.50945212796019033e-03
 15  3.17226540764907233e-04
 16  2.77019253652671703e-03
 17 -1.16584014239167269e-03
 18 -1.68779211998365802e-03
 19  1.73334325759550291e-03
 20  2.68288621734189675e-04
 21  2.34256749410595867e-03
 22 -9.88726398223789549e-04
 23 -1.42697695227330355e-03
 24  1.46668416667957054e-03
 25  6.18306293486443480e-04
 26  1.30132273509880642e-03
 27  4.61094613560184702e-04
 28  5.38662578638730589e-03
 29 -4.48215957898008468e-03
 30  5.92618692104332121e-04
 31  1.65717850742374889e-04
 32  8.65524974055376095e-02
 33  8.39755177544562886e-02
 34  6.70703200123846845e-03
 35 -1.18437408911224624e-02
 36  3.58727391956616473e-03
 37 -1.10438197334234434e-02
 38  8.65394158365094812e-02
 39  8.39655756544237797e-02
 40  6.70717251949533560e-03
 41 -4.30483187108727117e-03
 42 -1.24003916558690450e-02
 43  1.01351197317031752e-02
 44  8.65715647376923969e-02
 45  8.39890265098348215e-02
 46  6.70612710946180170e-03
 47  5.29400384724778260e-03
 48  1.33967877112431411e-02
 49  8.22983444688214077e-03
 Sym= A
 Ene= -6.24987924071664147e-01
 Spin= Alpha
 Occup=  1.00000000000000000e+00
  1 -1.21797937907379253e-06
  2 -2.83396573094345355e-06
  3 -1.03993337402345617e-06
  4  2.89517465104333620e-05
  5  1.30078888954424846e-05
  6  1.94626270721341948e-01
  7  2.21799986027141655e-01
  8  1.49799372671454573e-01
  9  1.67868830043984368e-01
 10  1.91300002425483395e-01
 11  1.29196780326313959e-01
 12  7.55437838462985345e-02
 13  8.60897297338307221e-02
 14  5.81424919547183852e-02
 15 -7.08796129865604064e-05
 16  1.33968114802354319e-03
 17 -1.38672491907169543e-02
 18  9.22547950831672202e-03
 19 -2.49826723761478265e-03
 20 -6.62553093179745357e-03
 21  1.82609092385106362e-03
 22 -1.96802727763376803e-02
 23  1.85939940239216589e-02
 24  3.13478690390411614e-03
 25 -1.18187539376786465e-03
 26  1.46903562150327944e-03
 27  6.67400826893540226e-05
 28  6.27359424313351458e-04
 29  7.39953889485823330e-04
 30 -1.85098703784548576e-03
 31 -1.08181452552907832e-03
 32  9.91649184909324105e-02
 33  1.42030147528406425e-01
 34  4.79102577550418046e-02
 35 -9.50761878581220243e-03
 36  1.35352799238552118e-02
 37 -7.26114295663827895e-03
 38  6.48887348658027108e-02
 39  9.29397832015752823e-02
 40  3.13526470032047672e-02
 41  2.53714217178964939e-03
 42 -1.55832317538072440e-03
 43  1.47504746727081162e-02
 44 -1.64048184842441436e-01
 45 -2.34950262946067245e-01
 46 -7.92440759180120524e-02
 47 -9.92957279902458674e-04
 48 -2.10528180052800135e-02
 49 -1.36188318117088491e-02
 Sym= A
 Ene= -6.24927904298114179e-01
 Spin= Alpha
 Occup=  1.00000000000000000e+00
  1  1.71790522514019105e-06
  2  4.04603729130217112e-06
  3 -3.21202455894618139e-06
  4 -2.23196051476356600e-05
  5 -1.18885437947769664e-05
  6  6.76007376406713295e-02
  7 -2.19939684841090111e-01
  8  2.37829149639432608e-01
  9  5.83072362200711194e-02
 10 -1.89715311468130282e-01
 11  2.05148311103835801e-01
 12  2.62434865122950119e-02
 13 -8.53864386025137423e-02
 14  9.23320681124750325e-02
 15 -3.33222179963985499e-03
 16  1.16361752551036399e-02
 17  6.45862246471218173e-03
 18  5.84423494136480232e-03
 19 -7.93808749594484067e-03
 20 -1.32368632491258222e-02
 21  1.70318910500590649e-02
 22  7.25105039839612098e-03
 23  3.98589205271838477e-03
 24 -1.60220219955370599e-02
 25 -1.30279729606938457e-03
 26  1.57318712426930208e-03
 27 -1.47305309586915852e-03
 28 -4.05731152523599377e-04
 29 -1.42741285059209142e-04
 30  1.49814841457890911e-03
 31  5.72266804315013232e-04
 32  1.32165345243121485e-01
 33  1.89302537137987725e-01
 34  6.38698464660200499e-02
 35 -1.98086471041440081e-02
 36 -1.14871333706539143e-03
 37 -8.25423244498599967e-03
 38 -1.51952117022563449e-01
 39 -2.17647875434832272e-01
 40 -7.34389339039214217e-02
 41  1.35359788597542632e-02
 42  1.47903981430342005e-02
 43 -1.26342151830040311e-02
 44  1.97861991503663140e-02
 45  2.83391213401467217e-02
 46  9.55970936956145045e-03
 47  3.50967701856624457e-03
 48 -4.65179509075189235e-03
 49  1.11676294909299374e-02
 Sym= A
 Ene= -4.28494803698947102e-01
 Spin= Alpha
 Occup=  1.00000000000000000e+00
  1 -2.93467965187674158e-02
  2 -6.97739479249748634e-02
  3  1.11834679063242848e-01
  4  1.86142683199627290e-01
  5  1.29273531914646300e-01
  6 -3.07282991295170893e-01
  7  1.29680627510988578e-01
  8  2.07257502863361642e-01
  9 -2.83455411632977994e-01
 10  1.19622228572162467e-01
 11  1.91185048391894291e-01
 12 -2.55119162092471263e-01
 13  1.07664507275491414e-01
 14  1.72072089133604111e-01
 15  2.52793585966942086e-04
 16  2.20036819533392207e-03
 17 -9.29185244480855606e-04
 18 -1.34020716531527183e-03
 19  1.37698881848434583e-03
 20  2.14808304446937855e-03
 21  1.87034641716892699e-02
 22 -7.89289231894295222e-03
 23 -1.13964581557362520e-02
 24  1.17025281312106502e-02
 25  2.31273662976969833e-03
 26  1.11647816223062191e-03
 27 -3.82726194916783188e-04
 28 -2.27166986765717357e-03
 29  2.42374792603001739e-03
 30  9.91134333829386078e-04
 31 -2.38919826899263452e-03
 32 -4.38503240759111415e-02
 33 -5.28769237901605266e-02
 34 -2.30514896635005406e-02
 35 -7.06797526599727693e-03
 36  3.76237665761199524e-03
 37  1.52907552811159409e-02
 38 -4.38528331249000911e-02
 39 -5.28850391101993514e-02
 40 -2.30595283928451966e-02
 41 -1.12351461986506338e-02
 42  1.26040577148469699e-02
 43  3.57784851529553130e-03
 44 -4.38514617182568928e-02
 45 -5.28742332803150555e-02
 46 -2.30430666193726860e-02
 47 -1.65445045801519142e-02
 48 -1.65908387786349587e-03
 49  4.63546979635379077e-03
 Sym= A
 Ene=  1.28053952527229647e-01
 Spin= Alpha
 Occup=  0.00000000000000000e+00
  1 -3.18338923572266397e-02
  2 -8.30960768395043736e-02
  3  2.63487491604272650e-01
  4 -4.62422300910119377e-01
  5  2.51349413449521597e+00
  6  6.73546249863082175e-02
  7 -2.83936857643120322e-02
  8 -4.54177387375269068e-02
  9 -9.79023325930299636e-03
 10  4.18365969176786104e-03
 11  6.61695832914342783e-03
 12  3.70935857860273888e-01
 13 -1.56463516609016390e-01
 14 -2.50145334823416943e-01
 15 -3.04793589450275734e-04
 16 -2.65726197770682973e-03
 17  1.12052267122307050e-03
 18  1.61887668865685116e-03
 19 -1.66292933853032427e-03
 20 -1.34138005982460348e-03
 21 -1.17081941085318188e-02
 22  4.92699345593855184e-03
 23  7.13537660942584195e-03
 24 -7.32504071580720485e-03
 25 -1.80423200061794191e-03
 26 -2.26710932633206229e-03
 27 -4.85614695120993199e-04
 28 -6.57486376625576827e-03
 29  5.25336406135664888e-03
 30 -1.23006607346731810e-03
 31  7.43000850694905315e-04
 32 -9.83385895501166438e-03
 33  6.08450397960780889e-02
 34 -1.13444166224009835e+00
 35 -3.28394837674480591e-02
 36  1.02892025560521808e-02
 37 -2.60395002663979386e-02
 38 -9.84300257712790103e-03
 39  6.08184011821686007e-02
 40 -1.13441508118608136e+00
 41 -1.37516683141568497e-02
 42 -3.01925749951298152e-02
 43  2.75872382650291723e-02
 44 -9.82207352650071169e-03
 45  6.08893340168505035e-02
 46 -1.13447455550545206e+00
 47  1.05535156606729914e-02
 48  3.51258033297707495e-02
 49  2.27609679200555769e-02
 Sym= A
 Ene=  2.12909035004409358e-01
 Spin= Alpha
 Occup=  0.00000000000000000e+00
  1  8.13863860533654510e-07
  2  2.34830949380776032e-06
  3 -2.87524630641205788e-05
  4  1.65029427229538363e-04
  5 -3.56676296041986821e-04
  6  2.16340496792490830e-02
  7  1.77304713222575488e-01
  8 -7.88696284419285604e-02
  9 -9.56839681507021082e-03
 10 -7.83792981761510660e-02
 11  3.47881069144714491e-02
 12  1.12060961416255475e-01
 13  9.18333277760974842e-01
 14 -4.08421323291740745e-01
 15  3.93190447437145787e-04
 16  1.17987243841566184e-03
 17  1.97342515122108124e-03
 18  1.26789786932187038e-03
 19  6.08655523141604085e-04
 20 -7.58340061640478975e-03
 21  5.15594244450329822e-02
 22  7.21893601648528338e-02
 23  1.58492749346596067e-02
 24 -1.68714645787019987e-02
 25 -2.40297675412943926e-03
 26 -2.56126963315581220e-03
 27 -8.16870673125234641e-03
 28  3.42075109806484453e-03
 29  3.21955444519227878e-03
 30  7.53433645700027702e-03
 31  9.30703224486654698e-04
 32  4.17391311863722463e-03
 33 -1.44265058611388941e-01
 34  9.76599759952481938e-01
 35  2.91248450680089248e-02
 36 -3.10991471211930545e-03
 37  1.80981030249753802e-02
 38 -1.03169606990060961e-02
 39  3.56467297178847564e-01
 40 -2.41313516527810323e+00
 41 -3.04168576530754325e-02
 42 -5.45728616005054998e-02
 43  5.58232665256985019e-02
 44  6.11590382583280124e-03
 45 -2.12350717942252104e-01
 46  1.43690306371939491e+00
 47 -1.03386379846105349e-02
 48 -3.76185144361818186e-02
 49 -3.15661570307758793e-02
 Sym= A
 Ene=  2.12911205015633431e-01
 Spin= Alpha
 Occup=  0.00000000000000000e+00
  1  9.80450518963250785e-07
  2  2.58587623247178619e-06
  3 -1.90255735240153123e-05
  4  9.60197215849728616e-05
  5 -2.26646850826401274e-04
  6  1.19619691345184187e-01
  7  5.02820567985368047e-02
  8  1.45888993343575607e-01
  9 -5.29044541474306823e-02
 10 -2.23041925750313390e-02
 11 -6.45208629289346497e-02
 12  6.19584830028934830e-01
 13  2.60508669159092821e-01
 14  7.55643670246331278e-01
 15 -1.59364540513382198e-03
 16 -8.86828715174528093e-04
 17  1.01868489644152773e-03
 18 -9.65941097631795877e-04
 19  1.45672998690881241e-03
 20 -1.00510238313345161e-02
 21 -3.77467926490533123e-02
 22  4.75098233418265806e-02
 23 -5.51483794782933398e-02
 24  4.05257934703722456e-02
 25  9.16559737160276868e-03
 26 -2.88051324715678930e-03
 27 -1.12578398894271525e-03
 28  4.29395356106218303e-04
 29  1.00163817801561896e-03
 30 -8.79714462731320574e-04
 31  7.95424267233759558e-03
 32 -9.48559638747578995e-03
 33  3.28416987613215861e-01
 34 -2.22282574918039622e+00
 35 -6.06546386053201034e-02
 36  2.22310923836033271e-02
 37 -4.23224992090304869e-02
 38  1.14137232049357881e-03
 39 -3.92299412046158702e-02
 40  2.65696618933140116e-01
 41  7.42167280601853819e-03
 42  8.33567617380390376e-03
 43 -1.56536826292037919e-03
 44  8.33037031273515562e-03
 45 -2.89274549376917101e-01
 46  1.95736863092556623e+00
 47 -1.10730654746776219e-02
 48 -5.76298903649363758e-02
 49 -3.45400197851800303e-02
 Sym= A
 Ene=  4.42454630075502620e-01
 Spin= Alpha
 Occup=  0.00000000000000000e+00
  1  1.30482819826037284e-06
  2  2.20198398261415899e-06
  3 -6.22525747190237885e-06
  4  5.09921691502566836e-05
  5  2.63179694409606038e-04
  6  2.15239894542157894e-03
  7 -5.82732000810340378e-03
  8  6.85259038052373273e-03
  9  5.91775002810923725e-02
 10 -1.59695267723284129e-01
 11  1.87637528694196226e-01
 12  4.33906364594319860e-01
 13 -1.17112726959712132e+00
 14  1.37597596592879268e+00
 15  5.73520795064474259e-03
 16 -2.62385033511264125e-02
 17 -1.33580178185957830e-02
 18 -1.50053951934377358e-02
 19  1.72621452674944532e-02
 20 -4.99555750129901666e-02
 21  1.83218214594301071e-01
 22  9.07823855660606499e-02
 23  9.98552737898810161e-02
 24 -1.25166787349375058e-01
 25 -1.63865629381359061e-02
 26  4.29336267690810357e-03
 27 -1.56690051998652213e-02
 28  3.36881220293608688e-03
 29  3.42573010909186368e-03
 30  1.63792225214298148e-02
 31 -4.27552534102592936e-03
 32 -7.58469573053004303e-02
 33 -1.29891985801250831e+00
 34 -2.63277548191838351e-01
 35  8.52641760933559312e-02
 36 -3.21239115130605227e-02
 37  7.69823035009095796e-02
 38  8.22354789060534136e-02
 39  1.40831920359305718e+00
 40  2.85265529157629649e-01
 41 -3.36580292610136403e-02
 42 -9.27310860602688913e-02
 43  8.35017821260566895e-02
 44 -6.39201737104067892e-03
 45 -1.09509789122358356e-01
 46 -2.22193021533327040e-02
 47 -1.39112409644008323e-04
 48 -1.40569725564556325e-02
 49  2.72874780825643716e-03
 Sym= A
 Ene=  4.42476477429051829e-01
 Spin= Alpha
 Occup=  0.00000000000000000e+00
  1  1.68455754505160864e-06
  2  1.88976574086477100e-06
  3 -6.07456253422043532e-06
  4  9.75375298105796699e-05
  5  5.84608635001031924e-04
  6 -5.34281392078764239e-03
  7 -6.48379249556124172e-03
  8 -3.83217423250083004e-03
  9 -1.46355969380623868e-01
 10 -1.78187376975355499e-01
 11 -1.05528143769141894e-01
 12 -1.07274568147853366e+00
 13 -1.30620346567812740e+00
 14 -7.73517893883362451e-01
 15  1.43806497028340177e-03
 16  1.72197271790348752e-03
 17 -3.19549836619862498e-02
 18  1.89539989308526446e-02
 19 -6.11028467326458959e-03
 20 -3.08508140138524919e-03
 21 -1.18646308835609754e-02
 22  2.22382534349710642e-01
 23 -1.38487009775085185e-01
 24  3.47054360189374758e-02
 25  1.47930576201942814e-02
 26 -1.10946477185691443e-02
 27 -9.62195657762993789e-03
 28  1.66176720008384855e-03
 29  1.98718262266119050e-03
 30  1.19406281852060328e-02
 31  1.60780696753638729e-02
 32  5.11671546703761221e-02
 33  8.76380246064174973e-01
 34  1.77816112666248138e-01
 35 -6.18145041562124034e-02
 36  1.01506683209313300e-02
 37 -5.10961019530238036e-02
 38  4.00894538521089361e-02
 39  6.86688141403071550e-01
 40  1.39240542586392818e-01
 41 -2.34661578030815159e-02
 42 -4.92628624644862317e-02
 43  3.27767034465214491e-02
 44 -9.12781126971463075e-02
 45 -1.56338859775882733e+00
 46 -3.17491018004565528e-01
 47 -4.19718562552439042e-02
 48 -1.15833356307503188e-01
 49 -7.34387959572190968e-02
 Sym= A
 Ene=  5.03515119532203737e-01
 Spin= Alpha
 Occup=  0.00000000000000000e+00
  1 -2.66180999789880565e-02
  2 -5.42661024437599976e-02
  3 -9.39668077067778718e-02
  4  1.00099045948565579e+00
  5 -2.41113757977076626e-01
  6 -1.75493335410021600e-01
  7  7.40715245579404435e-02
  8  1.18368828346470265e-01
  9 -4.77984616249350569e-01
 10  2.01717986870695004e-01
 11  3.22398060703609879e-01
 12  1.06802097499528492e+00
 13 -4.50661697150738338e-01
 14 -7.20286907243739671e-01
 15  3.39386732460399685e-04
 16  2.95177719759970314e-03
 17 -1.24364348317080242e-03
 18 -1.79950465380734870e-03
 19  1.84626301840615952e-03
 20  1.29346462980717129e-03
 21  1.13264162103614372e-02
 22 -4.77181865478817392e-03
 23 -6.89080523716147173e-03
 24  7.09167988773962317e-03
 25  2.62817595807052131e-03
 26  3.39568421744423574e-03
 27  7.60103585547332880e-04
 28  1.01267167298484621e-02
 29 -8.12236218669618558e-03
 30  1.82051585340225379e-03
 31 -1.01076650801440308e-03
 32 -1.11498696907276953e-02
 33 -4.49741216366614460e-01
 34  7.18486922560289537e-02
 35  2.16170580772776233e-02
 36 -5.91252634970755673e-03
 37  2.87691378180453435e-02
 38 -1.11496805375218937e-02
 39 -4.49734587432594202e-01
 40  7.18968685015447112e-02
 41  4.44516141573093014e-03
 42  3.05042002149773020e-02
 43 -1.94735526548862996e-02
 44 -1.11482561812923844e-02
 45 -4.49662029551146147e-01
 46  7.18434885371836141e-02
 47 -1.74116876305971946e-02
 48 -2.82449011798261845e-02
 49 -1.51272289144953991e-02
 Sym= A
 Ene=  6.29290973763687589e-01
 Spin= Alpha
 Occup=  0.00000000000000000e+00
  1  5.85823124720583899e-02
  2  1.17606363234338804e-01
  3  2.75032366421983254e-01
  4 -3.21691166078913104e+00
  5  6.01130712490193808e+00
  6 -1.05581590091945413e-01
  7  4.44866519644877417e-02
  8  7.11899770279039862e-02
  9 -3.73502494902586024e-01
 10  1.57489720434761615e-01
 11  2.51876358131210398e-01
 12  9.36581745050652170e-01
 13 -3.94763239367737606e-01
 14 -6.31512530662745708e-01
 15 -3.25525471845778173e-04
 16 -2.84575300594270067e-03
 17  1.19941095864366308e-03
 18  1.73209554462790604e-03
 19 -1.78240174517681812e-03
 20 -1.77124081942604122e-03
 21 -1.54951486533688402e-02
 22  6.48667950800966338e-03
 23  9.44705800553152959e-03
 24 -9.68971761343077539e-03
 25 -2.58833712870375123e-03
 26 -4.34791190024402373e-03
 27 -1.31062891189446824e-03
 28 -1.59939737713916501e-02
 29  1.31504065707184828e-02
 30 -2.12473096311141139e-03
 31  1.82518236721695526e-04
 32  4.81753902805820977e-02
 33  8.19742341035528399e-02
 34 -1.40998898670057327e+00
 35 -3.06343660018702987e-02
 36  1.00309228167548073e-02
 37 -1.83439601328633586e-02
 38  4.81765714496991820e-02
 39  8.19426729181010477e-02
 40 -1.41009722252830905e+00
 41 -1.51781923037877901e-02
 42 -2.27214264163758291e-02
 43  2.50472643046117972e-02
 44  4.81763815732281844e-02
 45  8.20962735752855249e-02
 46 -1.40984498698835270e+00
 47  4.49786280359969464e-03
 48  3.01655146883484382e-02
 49  2.11742223038957067e-02
 Sym= A
 Ene=  6.72527542824403746e-01
 Spin= Alpha
 Occup=  0.00000000000000000e+00
  1 -1.69367431737931957e-02
  2 -4.44112055338852368e-02
  3 -1.11548185425722444e-02
  4  1.81636688560553927e-01
  5  3.43390090511294588e+00
  6  8.54251368419401691e-02
  7 -3.59167948339848483e-02
  8 -5.75901701980586489e-02
  9  4.42065362286902797e-01
 10 -1.86298142619510387e-01
 11 -2.98110172517603300e-01
 12  5.43112290497805072e-01
 13 -2.29858087405797357e-01
 14 -3.66316912233196845e-01
 15 -1.32263031978234621e-03
 16 -1.15330277751829399e-02
 17  4.86932644029488149e-03
 18  7.02605856390397642e-03
 19 -7.21738918546758427e-03
 20 -1.34611349855362581e-03
 21 -1.15815339856660034e-02
 22  4.96187214454722834e-03
 23  7.06092958869493706e-03
 24 -7.25400719492661633e-03
 25  7.78822280505538610e-03
 26  1.05187661638004668e-02
 27  2.50804680755966703e-03
 28  3.27528802055684978e-02
 29 -2.64161976762807803e-02
 30  5.54572268367411504e-03
 31 -2.62347796125921452e-03
 32 -4.35673075767473161e-02
 33 -1.57474910180213423e+00
 34 -1.95920967125507550e-01
 35  8.25976504520428145e-02
 36 -2.85407030897494689e-02
 37  2.95711794510704930e-02
 38 -4.35826797100744914e-02
 39 -1.57480217191861871e+00
 40 -1.95191231537492932e-01
 41  4.88059052153845055e-02
 42  4.30882160503061745e-02
 43 -6.53253864269226353e-02
 44 -4.35559766437933274e-02
 45 -1.57460241582172533e+00
 46 -1.96653705250035560e-01
 47  5.81587809368582821e-03
 48 -7.25057917030856869e-02
 49 -5.68128079425678362e-02
 Sym= A
 Ene=  7.22994218069973882e-01
 Spin= Alpha
 Occup=  0.00000000000000000e+00
  1 -9.64476863898088821e-06
  2 -2.17885494837444639e-05
  3 -5.90823334832177194e-05
  4  5.53543775561930848e-04
  5  8.41241167862160429e-05
  6  5.87039830066495225e-02
  7 -2.29228566638248143e-01
  8  2.30408412013771102e-01
  9  2.19259321714135341e-01
 10 -8.55912251898727661e-01
 11  8.60241331439007384e-01
 12 -3.15036133548465214e-01
 13  1.23078313000874084e+00
 14 -1.23731391573881577e+00
 15 -4.55483162793992365e-03
 16 -1.58810945540350883e-03
 17 -2.35882964224619655e-03
 18 -3.72653311794438535e-03
 19 -1.85022222830325293e-03
 20 -1.21349632685461978e-02
 21  4.07386497695479549e-02
 22  2.47957094252073303e-02
 23  1.88517530052404424e-02
 24 -2.77796928365615266e-02
 25 -8.46541146216827321e-03
 26  2.97076859475777638e-03
 27 -9.46128043480275009e-03
 28  1.33889582216160084e-03
 29  1.59411658022606210e-03
 30  1.00163048697699732e-02
 31 -7.71672872640146823e-04
 32 -6.18501975670773044e-02
 33 -7.77298712445859352e-01
 34  1.61583978689429131e+00
 35  2.57360453176183404e-02
 36 -2.64341948830545334e-02
 37  3.33973028806467745e-02
 38  7.49708951580400768e-02
 39  9.41593094802888553e-01
 40 -1.95909913560345395e+00
 41 -6.77452891054494948e-03
 42 -3.95905371771307774e-02
 43  4.04588181572277314e-02
 44 -1.31586466295867954e-02
 45 -1.65592397605143687e-01
 46  3.43616954514564588e-01
 47  4.18668803953630916e-03
 48 -2.42094572434189623e-02
 49  1.67956848114400731e-02
 Sym= A
 Ene=  7.23038215650797400e-01
 Spin= Alpha
 Occup=  0.00000000000000000e+00
  1 -1.44029749394986261e-05
  2 -3.20505500032391939e-05
  3 -9.25573484418221231e-05
  4  8.70479068717734802e-04
  5 -1.12169729834750729e-04
  6 -1.97044276210789154e-01
  7 -2.11299678456511042e-01
  8 -1.60012522030801768e-01
  9 -7.35797604735278332e-01
 10 -7.89181161780067253e-01
 11 -5.97668332813002690e-01
 12  1.05822480307908928e+00
 13  1.13445973714791504e+00
 14  8.59023697502994343e-01
 15  4.25379528249907306e-03
 16  3.38040874024973337e-04
 17 -2.18055224837458098e-03
 18 -1.73532129418973221e-03
 19 -4.48682687855343331e-03
 20  1.13188386293888591e-03
 21 -6.54634801540028132e-03
 22  4.78317349951999163e-02
 23 -3.37068047114793407e-02
 24  9.73459510696818471e-03
 25  9.14452994750459755e-03
 26 -7.03666343994432085e-03
 27 -3.97602250002257376e-03
 28  1.15399382052338182e-04
 29  1.23454165093608083e-04
 30  6.71965886098490131e-03
 31  9.03467273591352683e-03
 32  5.08683283895207602e-02
 33  6.38951739994516044e-01
 34 -1.32939942642685982e+00
 35 -3.39534614562235007e-02
 36 -1.27141267876192191e-02
 37 -2.49199450336839400e-02
 38  2.80941101213494082e-02
 39  3.52739047927005667e-01
 40 -7.34350854358196803e-01
 41 -2.14004219401824868e-02
 42 -2.56353619143114171e-02
 43 -6.07022012643130236e-03
 44 -7.90164175672176394e-02
 45 -9.93413773983453208e-01
 46  2.06435656492967912e+00
 47 -2.22113011848152318e-02
 48 -4.49203566488100003e-02
 49 -3.20918749481191035e-02
 Sym= A
 Ene=  1.13241705902485101e+00
 Spin= Alpha
 Occup=  0.00000000000000000e+00
  1  3.25795547841851606e-07
  2  8.88702331236259349e-07
  3  4.33718784665760156e-06
  4 -4.19726859894631614e-05
  5 -8.52951153661923503e-05
  6  2.25303137404854747e-02
  7  2.91284869650307553e-02
  8  1.51634386868051366e-02
  9  4.89856868929056111e-02
 10  6.33794371153211245e-02
 11  3.30136429351751831e-02
 12  8.09617333534729394e-02
 13  1.04690646719029612e-01
 14  5.45250575382456096e-02
 15 -6.39857252732100798e-03
 16 -1.34908711544702895e-04
 17 -3.70388624015686107e-04
 18  7.01052430388346155e-03
 19  7.96324366674396912e-03
 20  4.15579981176023072e-01
 21  1.03667790893102272e-02
 22 -8.99042526797385472e-02
 23 -3.85153645458512439e-01
 24 -5.28280024315202601e-01
 25 -4.83369654716649024e-03
 26  3.86690901478169624e-03
 27  3.43662129020009611e-03
 28 -4.40520344603012159e-04
 29 -5.27611566834189924e-04
 30 -4.62171304033834936e-03
 31 -5.45552694720237430e-03
 32  8.20579202293786683e-03
 33 -1.04531941834730538e-01
 34  2.16265880806851664e-03
 35 -8.62994998768999988e-02
 36 -1.11196787399640298e-01
 37  8.31804326992993392e-02
 38  7.57700351831080109e-03
 39 -9.64939270226169293e-02
 40  2.00608584724642266e-03
 41 -1.41538365283359557e-01
 42  4.27439123026918111e-03
 43 -8.17961440789769789e-02
 44 -1.57699050319203872e-02
 45  2.01168528060314128e-01
 46 -4.14818459854688661e-03
 47  1.54640190636090941e-01
 48  1.23893012024623439e-02
 49 -5.05805629565045933e-02
 Sym= A
 Ene=  1.13243813583364883e+00
 Spin= Alpha
 Occup=  0.00000000000000000e+00
  1  2.77305492719011202e-08
  2  5.67706517528214998e-08
  3 -4.27661102561627187e-06
  4  2.95443161774961893e-05
  5 -9.39426322475212671e-06
  6  1.03668446116225652e-02
  7 -2.37629197827615227e-02
  8  3.02397366965035282e-02
  9  2.25529751712918031e-02
 10 -5.16647386431530325e-02
 11  6.57410660015356335e-02
 12  3.72343220906586961e-02
 13 -8.53263683828061614e-02
 14  1.08610753249758551e-01
 15 -1.04189101395161798e-02
 16  1.03975640610058672e-03
 17 -1.95518105270849714e-03
 18 -3.97857654408933191e-03
 19 -4.94246823970221575e-03
 20  6.47138096502882454e-01
 21  2.51177662866880792e-02
 22  1.66418355260166545e-01
 23  3.10023515995382470e-01
 24  2.55222476631980721e-01
 25 -5.91605539414821399e-03
 26  1.97554671771991422e-03
 27 -5.31854615825587927e-03
 28  9.95364777011633088e-04
 29  1.07239721061660846e-03
 30  5.48014574655300828e-03
 31 -1.53607752994492025e-03
 32  1.34761102615352790e-02
 33 -1.71806728721800722e-01
 34  3.58125370893613978e-03
 35 -3.23640437620397042e-02
 36  1.11475511795101415e-01
 37  1.14875753731454894e-01
 38 -1.38381290636042584e-02
 39  1.76401910815507934e-01
 40 -3.67759263555238929e-03
 41  4.69878492429114114e-02
 42 -1.28906300833682985e-01
 43 -8.85887229851376190e-02
 44  3.63057098224272862e-04
 45 -4.62013624162787608e-03
 46  1.04260672663348004e-04
 47 -4.82509958162872579e-02
 48  9.45217719413081192e-02
 49 -1.24420525421896327e-01
 Sym= A
 Ene=  1.36718416416917510e+00
 Spin= Alpha
 Occup=  0.00000000000000000e+00
  1  2.12160402358273518e-03
  2  9.59757593861187280e-03
  3 -2.12754484197691052e-01
  4  4.09649699840722026e-01
  5  2.68263884903684735e+00
  6  7.39848539576994230e-02
  7 -3.12242874097807752e-02
  8 -4.99027018934296782e-02
  9  2.55504905880195143e-01
 10 -1.08161920964680511e-01
 11 -1.72453235700064239e-01
 12  6.45414607462463374e-01
 13 -2.72448451003635128e-01
 14 -4.35319009875649865e-01
 15 -1.77695924828994356e-03
 16 -1.54787388299662699e-02
 17  6.53684682161613431e-03
 18  9.42962716320080128e-03
 19 -9.68786279704783593e-03
 20  8.90357131615097525e-02
 21  7.76280384146498581e-01
 22 -3.27358270689065922e-01
 23 -4.72951655834822293e-01
 24  4.85826384081773532e-01
 25 -1.82235070541512836e-03
 26  5.58868183149900579e-03
 27  3.93168120221139804e-03
 28  4.05002653232190354e-02
 29 -3.50382067492442661e-02
 30  1.34153187198203148e-03
 31  7.08986444264235894e-03
 32  2.03725489426736621e-02
 33 -1.22365151971362018e+00
 34 -2.66720777146842003e-01
 35  2.27969405095617278e-02
 36  2.71888605151355189e-03
 37  1.50691272181722569e-01
 38  2.03745114305177791e-02
 39 -1.22340802285396921e+00
 40 -2.66693931761338321e-01
 41 -4.29965894874699134e-02
 42  1.42189708898067230e-01
 43 -3.40616862758243849e-02
 44  2.03854154322919284e-02
 45 -1.22424933013535364e+00
 46 -2.66680672279674236e-01
 47 -1.26764365518006350e-01
 48 -8.29703418965754558e-02
 49 -1.75285849839523222e-02
 Sym= A
 Ene=  1.46739368387027214e+00
 Spin= Alpha
 Occup=  0.00000000000000000e+00
  1 -3.22938023746559298e-06
  2 -6.06186747827178525e-06
  3  1.30078824992976220e-04
  4 -8.65216212958585152e-04
  5  8.98356136145546039e-05
  6 -2.60299451765374536e-02
  7 -2.53864546270430140e-02
  8 -2.27511169208657223e-02
  9  8.13000433811341350e-01
 10  7.92300528219840539e-01
 11  7.10032187353111688e-01
 12  5.90551638699080117e-01
 13  5.75372303895856030e-01
 14  5.15560094549968206e-01
 15 -1.07234979564007596e-04
 16 -1.91017617204288209e-03
 17  9.41553197675278931e-03