[Molden Format]
[Atoms] (AU)
N    1    7        -0.101484417824       0.042802091602       0.068436017810
H    2    1         1.386989136774      -0.428111002546       1.186385543571
H    3    1         0.546613402813       1.354670877530      -1.175145429881
H    4    1        -0.523542491817      -1.521267127815      -0.962114115933
[GTO]
  1 0
 s    6  1.00
     4173.5110000000         0.0018348000
      627.4579000000         0.0139950000
      142.9021000000         0.0685870000
       40.2343300000         0.2322410000
       12.8202100000         0.4690700000
        4.3904370000         0.3604550000
 s    3  1.00
       11.6263580000        -0.1149610000
        2.7162800000        -0.1691180000
        0.7722180000         1.1458520000
 p    3  1.00
       11.6263580000         0.0675800000
        2.7162800000         0.3239070000
        0.7722180000         0.7408950000
 s    1  1.00
        0.2120313000         1.0000000000
 p    1  1.00
        0.2120313000         1.0000000000
 d    1  1.00
        0.8000000000         1.0000000000

  2 0
 s    3  1.00
       18.7311370000         0.0334946000
        2.8253937000         0.2347269500
        0.6401217000         0.8137573300
 s    1  1.00
        0.1612778000         1.0000000000

  3 0
 s    3  1.00
       18.7311370000         0.0334946000
        2.8253937000         0.2347269500
        0.6401217000         0.8137573300
 s    1  1.00
        0.1612778000         1.0000000000

  4 0
 s    3  1.00
       18.7311370000         0.0334946000
        2.8253937000         0.2347269500
        0.6401217000         0.8137573300
 s    1  1.00
        0.1612778000         1.0000000000

[MO]
 Sym= A
 Ene= -1.43043841778989336e+01
 Spin= Alpha
 Occup=  1.00000000000000000e+00
  1  9.92700790753738960e-01
  2  3.46559099051180902e-02
  3  1.02829518618602410e-03
  4 -4.34036458330285023e-04
  5 -6.93579458946041159e-04
  6  3.80210455841180177e-03
  7 -2.90184053900704184e-04
  8  1.22441004798708023e-04
  9  1.95717056228823772e-04
 10 -8.20758773881640272e-03
 11 -8.19013469237899437e-03
 12 -8.19603442813552664e-03
 13  1.79092718247409464e-05
 14  2.86311488191954253e-05
 15 -1.19505059188001233e-05
 16  2.40616776334360758e-04
 17 -3.54712541975601362e-04
 18  2.40648322838254601e-04
 19 -3.54707984364839536e-04
 20  2.40560639392635857e-04
 21 -3.54731526727602997e-04
 Sym= A
 Ene= -8.45175517912483798e-01
 Spin= Alpha
 Occup=  1.00000000000000000e+00
  1  1.98999463664501441e-01
  2 -4.15734856483477522e-01
  3 -8.96981954221757194e-02
  4  3.78794961741193426e-02
  5  6.05023015841549688e-02
  6 -4.25429520231872249e-01
  7 -4.48202453510833584e-02
  8  1.89153117673177898e-02
  9  3.02280623797555395e-02
 10  9.16860868399390185e-04
 11 -5.78616452530841038e-03
 12 -3.52589807479979436e-03
 13 -6.88608899740437812e-03
 14 -1.10033395156410984e-02
 15  4.63678461325067997e-03
 16 -1.40335571895901595e-01
 17 -1.22621087799847147e-02
 18 -1.40317053922405371e-01
 19 -1.22611988718343227e-02
 20 -1.40361239540313848e-01
 21 -1.22622643864325372e-02
 Sym= A
 Ene= -4.53835716368787279e-01
 Spin= Alpha
 Occup=  1.00000000000000000e+00
  1 -1.41553395272727388e-06
  2 -1.08044741131525383e-07
  3  2.82713641410987981e-01
  4  3.26145021600981244e-01
  5  2.15094154725081171e-01
  6  2.34242896346446114e-05
  7  1.44751329170184739e-01
  8  1.66981334060769815e-01
  9  1.10121378700710024e-01
 10  2.48733584045172651e-02
 11 -1.77919987123759532e-02
 12 -7.07948612908002733e-03
 13  4.11372681353729727e-03
 14  4.18138779512602313e-03
 15 -4.89256783879134724e-02
 16  1.66064535296449434e-01
 17  1.14637535138071137e-01
 18  1.12381821895449707e-01
 19  7.75807452607879394e-02
 20 -2.78420661615573717e-01
 21 -1.92182922516318855e-01
 Sym= A
 Ene= -4.53789681669418077e-01
 Spin= Alpha
 Occup=  1.00000000000000000e+00
  1  3.45097071697585749e-06
  2 -6.19807081805246672e-06
  3  1.01107258605037401e-01
  4 -3.17527111551664687e-01
  5  3.48577388779776454e-01
  6 -2.07443638542323440e-05
  7  5.17702564789598169e-02
  8 -1.62591497469019658e-01
  9  1.78492698414737944e-01
 10  1.44482870331404285e-02
 11  1.61680381354387310e-03
 12 -1.60655634467644151e-02
 13 -3.68094149966346693e-02
 14  4.19152228705221494e-02
 15  1.86495169849291986e-02
 16  2.25617223211473927e-01
 17  1.55766446269552133e-01
 18 -2.56617420872545354e-01
 19 -1.77175741953468718e-01
 20  3.09885874963756330e-02
 21  2.13918740958663998e-02
 Sym= A
 Ene= -2.50442354838781023e-01
 Spin= Alpha
 Occup=  1.00000000000000000e+00
  1  7.45507771969839139e-02
  2 -1.61571140365223409e-01
  3  4.34343247603109994e-01
  4 -1.83312923874515976e-01
  5 -2.92961221644109648e-01
  6 -3.33742677963653867e-01
  7  3.67180634533602501e-01
  8 -1.54963015856441011e-01
  9 -2.47658347302860321e-01
 10  2.21380435233899872e-02
 11 -2.92895162662296180e-03
 12  5.51261114715891325e-03
 13 -2.57480447891587153e-02
 14 -4.11449956873429432e-02
 15  1.73663638510376771e-02
 16  6.41668631514091953e-02
 17  6.44981379188449833e-02
 18  6.41695808438149523e-02
 19  6.45046004487260377e-02
 20  6.41721308584095596e-02
 21  6.44942664009656580e-02
 Sym= A
 Ene=  7.98054986124619586e-02
 Spin= Alpha
 Occup=  0.00000000000000000e+00
  1  1.27949005432808544e-01
  2 -1.69664339637859846e-01
  3 -1.52260111746588711e-01
  4  6.41435587173484340e-02
  5  1.02659597220301144e-01
  6 -1.82439261672669972e+00
  7 -3.64968300071159157e-01
  8  1.53829657708942330e-01
  9  2.46093488094367596e-01
 10  3.13508524589633034e-02
 11  3.33320899459552122e-02
 12  3.26656652898929117e-02
 13  2.02433371999762328e-03
 14  3.24284779690132237e-03
 15 -1.37024404693438353e-03
 16  5.66451178100459071e-02
 17  9.23355993510244666e-01
 18  5.66688167812262264e-02
 19  9.23463620686306830e-01
 20  5.66170983268264386e-02
 21  9.23197593019730811e-01
 Sym= A
 Ene=  1.69246953813627921e-01
 Spin= Alpha
 Occup=  0.00000000000000000e+00
  1 -1.31389227778993487e-05
  2  1.30687123768060458e-05
  3  7.01563874387742120e-02
  4 -2.93560881019764797e-01
  5  2.87677104092348701e-01
  6  3.03233969926127182e-04
  7  1.70943625413663508e-01
  8 -7.15235920919014445e-01
  9  7.00870504503282254e-01
 10  1.51227418387611993e-03
 11  1.13687586998667128e-02
 12 -1.28951391941327237e-02
 13 -1.65125375862149350e-02
 14  6.05841501060976582e-03
 15 -1.98126280228151652e-03
 16 -7.87457136590701129e-02
 17 -1.25244406933802543e+00
 18  9.73232246230236325e-02
 19  1.54751499715589613e+00
 20 -1.85633207950280758e-02
 21 -2.95463890847501187e-01
 Sym= A
 Ene=  1.69278570255852912e-01
 Spin= Alpha
 Occup=  0.00000000000000000e+00
  1 -2.15300211934651064e-05
  2  2.35291214238667341e-05
  3 -2.49920071133883287e-01
  4 -2.62139940893886147e-01
  5 -2.06551564726470127e-01
  6  4.68623075208998469e-04
  7 -6.08970761203329602e-01
  8 -6.38797614963138694e-01
  9 -5.03341430067937967e-01
 10 -1.40271731213232938e-02
 11  3.44127050619159793e-03
 12  1.05636218577326822e-02
 13 -1.52924857529563255e-02
 14 -7.17867093120878918e-04
 15  5.81786027271798210e-03
 16  6.68765175497410130e-02
 17  1.06402069306721070e+00
 18  3.47222763307878241e-02
 19  5.52403991259025395e-01
 20 -1.01591511834411369e-01
 21 -1.61701857535263560e+00
 Sym= A
 Ene=  6.84449749268738583e-01
 Spin= Alpha
 Occup=  0.00000000000000000e+00
  1 -1.72149530162565893e-06
  2 -7.92069924281428224e-06
  3 -1.13320128115570407e-01
  4  1.86114767689172594e-01
  5 -2.84307252571859792e-01
  6  1.08465611171647660e-04
  7  3.69558847152123893e-01
  8 -6.07007283641801565e-01
  9  9.27511244835996229e-01
 10 -7.26317740901831349e-02
 11  8.36060825428757981e-02
 12 -1.09633078879356350e-02
 13  1.17611245583686033e-01
 14 -1.99323742064491743e-01
 15 -7.75596035622058005e-02
 16 -6.98118657215103466e-01
 17  8.54865600186145991e-02
 18  6.37637094633275225e-01
 19 -7.82856164794046433e-02
 20  6.05175425626454586e-02
 21 -7.36377687881304300e-03
 Sym= A
 Ene=  6.84474521564652272e-01
 Spin= Alpha
 Occup=  0.00000000000000000e+00
  1  1.28425869847781055e-05
  2  3.26701781932555924e-05
  3 -1.91916936404745192e-01
  4 -2.82406126827158432e-01
  5 -1.08402093124590704e-01
  6 -3.88039131311206716e-04
  7  6.26644183006210720e-01
  8  9.21250748768200012e-01
  9  3.53466873643902169e-01
 10 -3.02740266094987977e-02
 11  5.77114481238446969e-02
 12 -2.74527867206500430e-02
 13  7.45590567975450563e-02
 14  1.56706755400323403e-02
 15  2.61774143635946754e-01
 16 -3.33128729609266983e-01
 17  4.06671326311478926e-02
 18 -4.37971384730985736e-01
 19  5.36429248749238780e-02
 20  7.71183333350099365e-01
 21 -9.39045052725511475e-02
 Sym= A
 Ene=  7.21864535422032882e-01
 Spin= Alpha
 Occup=  0.00000000000000000e+00
  1 -1.90525292195214829e-02
  2  1.68285658294128698e-01
  3 -7.68688928972615870e-01
  4  3.24249035857763657e-01
  5  5.18409804253975204e-01
  6  5.81930986067280692e-02
  7  8.74403839189252685e-01
  8 -3.68567775127295216e-01
  9 -5.89602537590649067e-01
 10  4.58697227467344329e-02
 11  4.45206034724794086e-02
 12  4.49593568859967263e-02
 13 -1.38629733524096225e-03
 14 -2.21464699997076745e-03
 15  1.04664900156563908e-03
 16 -4.39161625650585988e-02
 17 -1.35457694917601401e-01
 18 -4.40537078822542671e-02
 19 -1.35452985507788864e-01
 20 -4.36439564139237748e-02
 21 -1.35460474371282169e-01
 Sym= A
 Ene=  9.18348952517895056e-01
 Spin= Alpha
 Occup=  0.00000000000000000e+00
  1 -6.17544835499090738e-04
  2  6.57955237075333581e-03
  3 -1.65558850911513206e-01
  4  6.95887393481016581e-01
  5 -6.85103131739475124e-01
  6 -9.48535085858540246e-03
  7  2.38604760048636316e-01
  8 -9.92984062806647194e-01
  9  9.74727710186914287e-01
 10  4.80152483419893916e-02
 11 -4.40566708896296122e-02
 12 -1.59766624063950591e-03
 13 -7.71624097386688773e-02
 14  1.45140076227541243e-01
 15  1.04350579278142119e-01
 16  4.15922792488319315e-01
 17 -1.12071313754748547e+00
 18 -5.28243234536274864e-01
 19  1.39520187021671593e+00
 20  9.22680163984034851e-02
 21 -2.58262970147517368e-01
 Sym= A
 Ene=  9.18418498530609972e-01
 Spin= Alpha
 Occup=  0.00000000000000000e+00
  1  9.28033010805432487e-04
  2 -9.91435505964781416e-03
  3 -5.96164429327434409e-01
  4 -6.22274083003838241e-01
  5 -4.88180916686641486e-01
  6  1.43160564860980409e-02
  7  8.45736084714253100e-01
  8  8.88565560530142906e-01
  9  6.98442438183687675e-01
 10  3.83674407931379677e-02
 11 -5.85022965741168882e-02
 12  1.65757128551552758e-02
 13 -6.75145849176549406e-02
 14  2.94467503768899817e-02
 15 -1.75172675220389040e-01
 16  3.68406288853986186e-01
 17 -9.62935585087352885e-01
 18  1.96869332792388579e-01
 19 -5.05889307436214519e-01
 20 -5.35114524124143509e-01
 21  1.44437774928263329e+00
 Sym= A
 Ene=  9.21357212260632163e-01
 Spin= Alpha
 Occup=  0.00000000000000000e+00
  1  6.53036438298197214e-02
  2 -6.95690444650584827e-01
  3 -1.78797021594539557e-01
  4  9.38631200411951666e-02
  5  1.25746383899857234e-01
  6  1.00447319578065253e+00
  7 -2.45418200076393603e-02
  8 -1.57980253796822755e-02
  9  9.18579324537481534e-03
 10 -1.52105718165487236e-01
 11 -2.70405361852818632e-02
 12 -6.96790374991216460e-02
 13  1.28214911708294604e-01
 14  2.05447550020501246e-01
 15 -8.27687291632279581e-02
 16  7.05758400318799217e-01
 17 -5.68709973799495727e-01
 18  6.99220525831661721e-01
 19 -5.51443802699594254e-01
 20  7.15548448119455172e-01
 21 -5.94835808799957233e-01
 Sym= A
 Ene=  1.14886629379685168e+00
 Spin= Alpha
 Occup=  0.00000000000000000e+00
  1  8.66450768940931759e-02
  2  1.54919800622004433e+00
  3  1.13415529094358231e-01
  4 -4.78457100728857873e-02
  5 -7.64884860751733897e-02
  6 -4.11347534065057197e+00
  7 -6.41574365159755522e-01
  8  2.70769697739994153e-01
  9  4.32677064490650964e-01
 10  1.86190315522726219e-01
 11  3.61809011751567322e-01
 12  3.02645213931001744e-01
 13  1.80461488319010793e-01
 14  2.88324190688670323e-01
 15 -1.21722699553942618e-01
 16  3.41258763907256235e-01
 17  8.00246224058566047e-01
 18  3.41287852692637561e-01
 19  8.00084398302045141e-01
 20  3.41131280577053997e-01
 21  8.00503292905448305e-01
 Sym= A
 Ene=  1.67575639753206906e+00
 Spin= Alpha
 Occup=  0.00000000000000000e+00
  1  3.68698387271726746e-06
  2  2.45474085943446216e-05
  3  1.06033231908423571e-02
  4  1.40590950273847947e-02
  5  6.92673069226609067e-03
  6 -9.55951705356591843e-05
  7  2.44401023887500339e-02
  8  3.24328410772824760e-02
  9  1.59862513702155457e-02
 10 -7.12257482430795785e-01
 11  2.00175427063592648e-01
 12  5.12093532439243493e-01
 13 -1.16693274894047505e+00
 14  2.19107943152670077e-02
 15 -1.20394009731326176e-01
 16 -1.83729316160546226e-02
 17 -2.19537983120592951e-03
 18 -1.81530332163405764e-02
 19 -2.16647520388955949e-03
 20  3.66155746918279540e-02
 21  4.39900730107936361e-03
 Sym= A
 Ene=  1.67577055836866395e+00
 Spin= Alpha
 Occup=  0.00000000000000000e+00
  1  7.79246974626935487e-07
  2  4.62267279721026673e-06
  3 -5.13497547603135318e-03
  4  1.10210647682614810e-02
  5 -1.45050595544229475e-02
  6 -2.04576813867338616e-05
  7 -1.18418733516041288e-02
  8  2.54158344615980115e-02
  9 -3.34493751661188582e-02
 10  1.09262510585516129e-01
 11  7.36237702085199675e-01
 12 -8.45497923520515227e-01
 13 -5.88055788214896902e-01
 14  1.26811839134601118e-02
 15 -3.35074780999597754e-01
 16  3.16366487507502708e-02
 17  3.78714239520867553e-03
 18 -3.17570449120765305e-02
 19 -3.79619755285768700e-03
 20  1.38930337251129963e-04
 21  1.76340000160613990e-05
 Sym= A
 Ene=  1.95305576450764384e+00
 Spin= Alpha
 Occup=  0.00000000000000000e+00
  1  5.37257192563861466e-02
  2  4.67388337598172554e-01
  3 -1.76866432067924115e-02
  4  7.52122502092356787e-03
  5  1.19488678716106154e-02
  6 -1.54300477522556112e+00
  7 -3.56549011249843950e-01
  8  1.50380298221304415e-01
  9  2.40429455304533912e-01
 10  4.78471871853700492e-01
 11 -2.80563422042852284e-01
 12 -2.48578818224599180e-02
 13 -7.79827917401736181e-01
 14 -1.24599234396132008e+00
 15  5.26012539461811479e-01
 16  4.69236376298061364e-01
 17  2.09016777892205186e-01
 18  4.69274098234629899e-01
 19  2.08971502475782528e-01
 20  4.69163647817815999e-01
 21  2.09059167902582832e-01
 Sym= A
 Ene=  2.40656228920230753e+00
 Spin= Alpha
 Occup=  0.00000000000000000e+00
  1 -1.22538456772332744e-05
  2 -1.69453145880764635e-06
  3  1.06053227656189245e-02
  4 -4.92466800045208430e-02
  5  4.64886129450616803e-02
  6  2.34434506805937656e-04
  7  1.03022411121132973e-01
  8 -4.79140037923181161e-01
  9  4.52418904417518808e-01
 10  4.40061726526897901e-01
 11 -3.20024511845962978e-01
 12 -1.20069394428735723e-01
 13 -8.28621859846029984e-01
 14  1.42967180239728497e+00
 15  1.00474819187154263e+00
 16 -6.86716241984941966e-01
 17  1.92679714808613942e-02
 18  8.72495683279288059e-01
 19 -2.45437805547754490e-02
 20 -1.86039844993728276e-01
 21  5.17357661617041855e-03
 Sym= A
 Ene=  2.40668261355483137e+00
 Spin= Alpha
 Occup=  0.00000000000000000e+00
  1 -1.87574843787646881e-05
  2  1.06926229665763860e-05
  3 -4.13724609422291417e-02
  4 -4.20464793246807175e-02
  5 -3.51063995529823508e-02
  6  3.23914981528640878e-04
  7 -4.02359387803324420e-01
  8 -4.08618780713000562e-01
  9 -3.41050627166192111e-01
 10 -4.98931964982968379e-01
 11  5.83063173761270370e-01
 12 -8.41868045719170177e-02
 13  5.60824927470315537e-01
 14 -2.90695317329512759e-01
 15  1.66448952570988840e+00
 16  6.11116649574064086e-01
 17 -1.71339354582192953e-02
 18  2.88992821878269357e-01
 19 -8.10442084085892002e-03
 20 -9.00498237230538567e-01
 21  2.51137900480827014e-02
 Sym= A
 Ene=  3.67176057364671937e+00
 Spin= Alpha
 Occup=  0.00000000000000000e+00
  1  4.66935875570209324e-01
  2 -1.16011212264842678e+00
  3  7.70189210838692906e-02
  4 -3.25296903610798813e-02
  5 -5.19523109449607640e-02
  6 -3.20794426809786071e+00
  7 -2.54704127564142346e-01
  8  1.07479071478318880e-01
  9  1.71773127065497910e-01
 10  1.51793737118853289e+00
 11  1.50621651489805242e+00
 12  1.51015153218544862e+00
 13 -1.20651442989648458e-02
 14 -1.92606405255152588e-02
 15  8.23191057897513720e-03
 16 -1.39700407974603424e-01
 17  5.68174747531816959e-01
 18 -1.39651653448947866e-01
 19  5.68109239572548552e-01
 20 -1.39799082731875191e-01
 21  5.68285795386619053e-01
 Sym= A
 Ene= -1.43043841778989336e+01
 Spin= Beta
 Occup=  1.00000000000000000e+00
  1  9.92700790753738960e-01
  2  3.46559099051180902e-02
  3  1.02829518618602410e-03
  4 -4.34036458330285023e-04
  5 -6.93579458946041159e-04
  6  3.80210455841180177e-03
  7 -2.90184053900704184e-04
  8  1.22441004798708023e-04
  9  1.95717056228823772e-04
 10 -8.20758773881640272e-03
 11 -8.19013469237899437e-03
 12 -8.19603442813552664e-03
 13  1.79092718247409464e-05
 14  2.86311488191954253e-05
 15 -1.19505059188001233e-05
 16  2.40616776334360758e-04
 17 -3.54712541975601362e-04
 18  2.40648322838254601e-04
 19 -3.54707984364839536e-04
 20  2.40560639392635857e-04
 21 -3.54731526727602997e-04
 Sym= A
 Ene= -8.45175517912483798e-01
 Spin= Beta
 Occup=  1.00000000000000000e+00
  1  1.98999463664501441e-01
  2 -4.15734856483477522e-01
  3 -8.96981954221757194e-02
  4  3.78794961741193426e-02
  5  6.05023015841549688e-02
  6 -4.25429520231872249e-01
  7 -4.48202453510833584e-02
  8  1.89153117673177898e-02
  9  3.02280623797555395e-02
 10  9.16860868399390185e-04
 11 -5.78616452530841038e-03
 12 -3.52589807479979436e-03
 13 -6.88608899740437812e-03
 14 -1.10033395156410984e-02
 15  4.63678461325067997e-03
 16 -1.40335571895901595e-01
 17 -1.22621087799847147e-02
 18 -1.40317053922405371e-01
 19 -1.22611988718343227e-02
 20 -1.40361239540313848e-01
 21 -1.22622643864325372e-02
 Sym= A
 Ene= -4.53835716368787279e-01
 Spin= Beta
 Occup=  1.00000000000000000e+00
  1 -1.41553395272727388e-06
  2 -1.08044741131525383e-07
  3  2.82713641410987981e-01
  4  3.26145021600981244e-01
  5  2.15094154725081171e-01
  6  2.34242896346446114e-05
  7  1.44751329170184739e-01
  8  1.66981334060769815e-01
  9  1.10121378700710024e-01
 10  2.48733584045172651e-02
 11 -1.77919987123759532e-02
 12 -7.07948612908002733e-03
 13  4.11372681353729727e-03
 14  4.18138779512602313e-03
 15 -4.89256783879134724e-02
 16  1.66064535296449434e-01
 17  1.14637535138071137e-01
 18  1.12381821895449707e-01
 19  7.75807452607879394e-02
 20 -2.78420661615573717e-01
 21 -1.92182922516318855e-01
 Sym= A
 Ene= -4.53789681669418077e-01
 Spin= Beta
 Occup=  1.00000000000000000e+00
  1  3.45097071697585749e-06
  2 -6.19807081805246672e-06
  3  1.01107258605037401e-01
  4 -3.17527111551664687e-01
  5  3.48577388779776454e-01
  6 -2.07443638542323440e-05
  7  5.17702564789598169e-02
  8 -1.62591497469019658e-01
  9  1.78492698414737944e-01
 10  1.44482870331404285e-02
 11  1.61680381354387310e-03
 12 -1.60655634467644151e-02
 13 -3.68094149966346693e-02
 14  4.19152228705221494e-02
 15  1.86495169849291986e-02
 16  2.25617223211473927e-01
 17  1.55766446269552133e-01
 18 -2.56617420872545354e-01
 19 -1.77175741953468718e-01
 20  3.09885874963756330e-02
 21  2.13918740958663998e-02
 Sym= A
 Ene= -2.50442354838781023e-01
 Spin= Beta
 Occup=  1.00000000000000000e+00
  1  7.45507771969839139e-02
  2 -1.61571140365223409e-01
  3  4.34343247603109994e-01
  4 -1.83312923874515976e-01
  5 -2.92961221644109648e-01
  6 -3.33742677963653867e-01
  7  3.67180634533602501e-01
  8 -1.54963015856441011e-01
  9 -2.47658347302860321e-01
 10  2.21380435233899872e-02
 11 -2.92895162662296180e-03
 12  5.51261114715891325e-03
 13 -2.57480447891587153e-02
 14 -4.11449956873429432e-02
 15  1.73663638510376771e-02
 16  6.41668631514091953e-02
 17  6.44981379188449833e-02
 18  6.41695808438149523e-02
 19  6.45046004487260377e-02
 20  6.41721308584095596e-02
 21  6.44942664009656580e-02
 Sym= A
 Ene=  7.98054986124619586e-02
 Spin= Beta
 Occup=  0.00000000000000000e+00
  1  1.27949005432808544e-01
  2 -1.69664339637859846e-01
  3 -1.52260111746588711e-01
  4  6.41435587173484340e-02
  5  1.02659597220301144e-01
  6 -1.82439261672669972e+00
  7 -3.64968300071159157e-01
  8  1.53829657708942330e-01
  9  2.46093488094367596e-01
 10  3.13508524589633034e-02
 11  3.33320899459552122e-02
 12  3.26656652898929117e-02
 13  2.02433371999762328e-03
 14  3.24284779690132237e-03
 15 -1.37024404693438353e-03
 16  5.66451178100459071e-02
 17  9.23355993510244666e-01
 18  5.66688167812262264e-02
 19  9.23463620686306830e-01
 20  5.66170983268264386e-02
 21  9.23197593019730811e-01
 Sym= A
 Ene=  1.69246953813627921e-01
 Spin= Beta
 Occup=  0.00000000000000000e+00
  1 -1.31389227778993487e-05
  2  1.30687123768060458e-05
  3  7.01563874387742120e-02
  4 -2.93560881019764797e-01
  5  2.87677104092348701e-01
  6  3.03233969926127182e-04
  7  1.70943625413663508e-01
  8 -7.15235920919014445e-01
  9  7.00870504503282254e-01
 10  1.51227418387611993e-03
 11  1.13687586998667128e-02
 12 -1.28951391941327237e-02
 13 -1.65125375862149350e-02
 14  6.05841501060976582e-03
 15 -1.98126280228151652e-03
 16 -7.87457136590701129e-02
 17 -1.25244406933802543e+00
 18  9.73232246230236325e-02
 19  1.54751499715589613e+00
 20 -1.85633207950280758e-02
 21 -2.95463890847501187e-01
 Sym= A
 Ene=  1.69278570255852912e-01
 Spin= Beta
 Occup=  0.00000000000000000e+00
  1 -2.15300211934651064e-05
  2  2.35291214238667341e-05
  3 -2.49920071133883287e-01
  4 -2.62139940893886147e-01
  5 -2.06551564726470127e-01
  6  4.68623075208998469e-04
  7 -6.08970761203329602e-01
  8 -6.38797614963138694e-01
  9 -5.03341430067937967e-01
 10 -1.40271731213232938e-02
 11  3.44127050619159793e-03
 12  1.05636218577326822e-02
 13 -1.52924857529563255e-02
 14 -7.17867093120878918e-04
 15  5.81786027271798210e-03
 16  6.68765175497410130e-02
 17  1.06402069306721070e+00
 18  3.47222763307878241e-02
 19  5.52403991259025395e-01
 20 -1.01591511834411369e-01
 21 -1.61701857535263560e+00
 Sym= A
 Ene=  6.84449749268738583e-01
 Spin= Beta
 Occup=  0.00000000000000000e+00
  1 -1.72149530162565893e-06
  2 -7.92069924281428224e-06
  3 -1.13320128115570407e-01
  4  1.86114767689172594e-01
  5 -2.84307252571859792e-01
  6  1.08465611171647660e-04
  7  3.69558847152123893e-01
  8 -6.07007283641801565e-01
  9  9.27511244835996229e-01
 10 -7.26317740901831349e-02
 11  8.36060825428757981e-02
 12 -1.09633078879356350e-02
 13  1.17611245583686033e-01
 14 -1.99323742064491743e-01
 15 -7.75596035622058005e-02
 16 -6.98118657215103466e-01
 17  8.54865600186145991e-02
 18  6.37637094633275225e-01
 19 -7.82856164794046433e-02
 20  6.05175425626454586e-02
 21 -7.36377687881304300e-03
 Sym= A
 Ene=  6.84474521564652272e-01
 Spin= Beta
 Occup=  0.00000000000000000e+00
  1  1.28425869847781055e-05
  2  3.26701781932555924e-05
  3 -1.91916936404745192e-01
  4 -2.82406126827158432e-01
  5 -1.08402093124590704e-01
  6 -3.88039131311206716e-04
  7  6.26644183006210720e-01
  8  9.21250748768200012e-01
  9  3.53466873643902169e-01
 10 -3.02740266094987977e-02
 11  5.77114481238446969e-02
 12 -2.74527867206500430e-02
 13  7.45590567975450563e-02
 14  1.56706755400323403e-02
 15  2.61774143635946754e-01
 16 -3.33128729609266983e-01
 17  4.06671326311478926e-02
 18 -4.37971384730985736e-01
 19  5.36429248749238780e-02
 20  7.71183333350099365e-01
 21 -9.39045052725511475e-02
 Sym= A
 Ene=  7.21864535422032882e-01
 Spin= Beta
 Occup=  0.00000000000000000e+00
  1 -1.90525292195214829e-02
  2  1.68285658294128698e-01
  3 -7.68688928972615870e-01
  4  3.24249035857763657e-01
  5  5.18409804253975204e-01
  6  5.81930986067280692e-02
  7  8.74403839189252685e-01
  8 -3.68567775127295216e-01
  9 -5.89602537590649067e-01
 10  4.58697227467344329e-02
 11  4.45206034724794086e-02
 12  4.49593568859967263e-02
 13 -1.38629733524096225e-03
 14 -2.21464699997076745e-03
 15  1.04664900156563908e-03
 16 -4.39161625650585988e-02
 17 -1.35457694917601401e-01
 18 -4.40537078822542671e-02
 19 -1.35452985507788864e-01
 20 -4.36439564139237748e-02
 21 -1.35460474371282169e-01
 Sym= A
 Ene=  9.18348952517895056e-01
 Spin= Beta
 Occup=  0.00000000000000000e+00
  1 -6.17544835499090738e-04
  2  6.57955237075333581e-03
  3 -1.65558850911513206e-01
  4  6.95887393481016581e-01
  5 -6.85103131739475124e-01
  6 -9.48535085858540246e-03
  7  2.38604760048636316e-01
  8 -9.92984062806647194e-01
  9  9.74727710186914287e-01
 10  4.80152483419893916e-02
 11 -4.40566708896296122e-02
 12 -1.59766624063950591e-03
 13 -7.71624097386688773e-02
 14  1.45140076227541243e-01
 15  1.04350579278142119e-01
 16  4.15922792488319315e-01
 17 -1.12071313754748547e+00
 18 -5.28243234536274864e-01
 19  1.39520187021671593e+00
 20  9.22680163984034851e-02
 21 -2.58262970147517368e-01
 Sym= A
 Ene=  9.18418498530609972e-01
 Spin= Beta
 Occup=  0.00000000000000000e+00
  1  9.28033010805432487e-04
  2 -9.91435505964781416e-03
  3 -5.96164429327434409e-01
  4 -6.22274083003838241e-01
  5 -4.88180916686641486e-01
  6  1.43160564860980409e-02
  7  8.45736084714253100e-01
  8  8.88565560530142906e-01
  9  6.98442438183687675e-01
 10  3.83674407931379677e-02
 11 -5.85022965741168882e-02
 12  1.65757128551552758e-02
 13 -6.75145849176549406e-02
 14  2.94467503768899817e-02
 15 -1.75172675220389040e-01
 16  3.68406288853986186e-01
 17 -9.62935585087352885e-01
 18  1.96869332792388579e-01
 19 -5.05889307436214519e-01
 20 -5.35114524124143509e-01
 21  1.44437774928263329e+00
 Sym= A
 Ene=  9.21357212260632163e-01
 Spin= Beta
 Occup=  0.00000000000000000e+00
  1  6.53036438298197214e-02
  2 -6.95690444650584827e-01
  3 -1.78797021594539557e-01
  4  9.38631200411951666e-02
  5  1.25746383899857234e-01
  6  1.00447319578065253e+00
  7 -2.45418200076393603e-02
  8 -1.57980253796822755e-02
  9  9.18579324537481534e-03
 10 -1.52105718165487236e-01
 11 -2.70405361852818632e-02
 12 -6.96790374991216460e-02
 13  1.28214911708294604e-01
 14  2.05447550020501246e-01
 15 -8.27687291632279581e-02
 16  7.05758400318799217e-01
 17 -5.68709973799495727e-01
 18  6.99220525831661721e-01
 19 -5.51443802699594254e-01
 20  7.15548448119455172e-01
 21 -5.94835808799957233e-01
 Sym= A
 Ene=  1.14886629379685168e+00
 Spin= Beta
 Occup=  0.00000000000000000e+00
  1  8.66450768940931759e-02
  2  1.54919800622004433e+00
  3  1.13415529094358231e-01
  4 -4.78457100728857873e-02
  5 -7.64884860751733897e-02
  6 -4.11347534065057197e+00
  7 -6.41574365159755522e-01
  8  2.70769697739994153e-01
  9  4.32677064490650964e-01
 10  1.86190315522726219e-01
 11  3.61809011751567322e-01
 12  3.02645213931001744e-01
 13  1.80461488319010793e-01
 14  2.88324190688670323e-01
 15 -1.21722699553942618e-01
 16  3.41258763907256235e-01
 17  8.00246224058566047e-01
 18  3.41287852692637561e-01
 19  8.00084398302045141e-01
 20  3.41131280577053997e-01
 21  8.00503292905448305e-01
 Sym= A
 Ene=  1.67575639753206906e+00
 Spin= Beta
 Occup=  0.00000000000000000e+00
  1  3.68698387271726746e-06
  2  2.45474085943446216e-05
  3  1.06033231908423571e-02
  4  1.40590950273847947e-02
  5  6.92673069226609067e-03
  6 -9.55951705356591843e-05
  7  2.44401023887500339e-02
  8  3.24328410772824760e-02
  9  1.59862513702155457e-02
 10 -7.12257482430795785e-01
 11  2.00175427063592648e-01
 12  5.12093532439243493e-01
 13 -1.16693274894047505e+00
 14  2.19107943152670077e-02
 15 -1.20394009731326176e-01
 16 -1.83729316160546226e-02
 17 -2.19537983120592951e-03
 18 -1.81530332163405764e-02
 19 -2.16647520388955949e-03
 20  3.66155746918279540e-02
 21  4.39900730107936361e-03
 Sym= A
 Ene=  1.67577055836866395e+00
 Spin= Beta
 Occup=  0.00000000000000000e+00
  1  7.79246974626935487e-07
  2  4.62267279721026673e-06
  3 -5.13497547603135318e-03
  4  1.10210647682614810e-02
  5 -1.45050595544229475e-02
  6 -2.04576813867338616e-05
  7 -1.18418733516041288e-02
  8  2.54158344615980115e-02
  9 -3.34493751661188582e-02
 10  1.09262510585516129e-01
 11  7.36237702085199675e-01
 12 -8.45497923520515227e-01
 13 -5.88055788214896902e-01
 14  1.26811839134601118e-02
 15 -3.35074780999597754e-01
 16  3.16366487507502708e-02
 17  3.78714239520867553e-03
 18 -3.17570449120765305e-02
 19 -3.79619755285768700e-03
 20  1.38930337251129963e-04
 21  1.76340000160613990e-05
 Sym= A
 Ene=  1.95305576450764384e+00
 Spin= Beta
 Occup=  0.00000000000000000e+00
  1  5.37257192563861466e-02
  2  4.67388337598172554e-01
  3 -1.76866432067924115e-02
  4  7.52122502092356787e-03
  5  1.19488678716106154e-02
  6 -1.54300477522556112e+00
  7 -3.56549011249843950e-01
  8  1.50380298221304415e-01
  9  2.40429455304533912e-01
 10  4.78471871853700492e-01
 11 -2.80563422042852284e-01
 12 -2.48578818224599180e-02
 13 -7.79827917401736181e-01
 14 -1.24599234396132008e+00
 15  5.26012539461811479e-01
 16  4.69236376298061364e-01
 17  2.09016777892205186e-01
 18  4.69274098234629899e-01
 19  2.08971502475782528e-01
 20  4.69163647817815999e-01
 21  2.09059167902582832e-01
 Sym= A
 Ene=  2.40656228920230753e+00
 Spin= Beta
 Occup=  0.00000000000000000e+00
  1 -1.22538456772332744e-05
  2 -1.69453145880764635e-06
  3  1.06053227656189245e-02
  4 -4.92466800045208430e-02
  5  4.64886129450616803e-02
  6  2.34434506805937656e-04
  7  1.03022411121132973e-01
  8 -4.79140037923181161e-01
  9  4.52418904417518808e-01
 10  4.40061726526897901e-01
 11 -3.20024511845962978e-01
 12 -1.20069394428735723e-01
 13 -8.28621859846029984e-01
 14  1.42967180239728497e+00
 15  1.00474819187154263e+00
 16 -6.86716241984941966e-01
 17  1.92679714808613942e-02
 18  8.72495683279288059e-01
 19 -2.45437805547754490e-02
 20 -1.86039844993728276e-01
 21  5.17357661617041855e-03
 Sym= A
 Ene=  2.40668261355483137e+00
 Spin= Beta
 Occup=  0.00000000000000000e+00
  1 -1.87574843787646881e-05
  2  1.06926229665763860e-05
  3 -4.13724609422291417e-02
  4 -4.20464793246807175e-02
  5 -3.51063995529823508e-02
  6  3.23914981528640878e-04
  7 -4.02359387803324420e-01
  8 -4.08618780713000562e-01
  9 -3.41050627166192111e-01
 10 -4.98931964982968379e-01
 11  5.83063173761270370e-01
 12 -8.41868045719170177e-02
 13  5.60824927470315537e-01
 14 -2.90695317329512759e-01
 15  1.66448952570988840e+00
 16  6.11116649574064086e-01
 17 -1.71339354582192953e-02