
    -----------------------------------------------------------------------
          Psi4: An Open-Source Ab Initio Electronic Structure Package
                               Psi4 1.3.2 release

                         Git: Rev {HEAD} ecbda83 


    R. M. Parrish, L. A. Burns, D. G. A. Smith, A. C. Simmonett,
    A. E. DePrince III, E. G. Hohenstein, U. Bozkaya, A. Yu. Sokolov,
    R. Di Remigio, R. M. Richard, J. F. Gonthier, A. M. James,
    H. R. McAlexander, A. Kumar, M. Saitow, X. Wang, B. P. Pritchard,
    P. Verma, H. F. Schaefer III, K. Patkowski, R. A. King, E. F. Valeev,
    F. A. Evangelista, J. M. Turney, T. D. Crawford, and C. D. Sherrill,
    J. Chem. Theory Comput. 13(7) pp 3185--3197 (2017).
    (doi: 10.1021/acs.jctc.7b00174)


                         Additional Contributions by
    P. Kraus, H. Kruse, M. H. Lechner, M. C. Schieber, R. A. Shaw,
    A. Alenaizan, R. Galvelis, Z. L. Glick, S. Lehtola, and J. P. Misiewicz

    -----------------------------------------------------------------------


    Psi4 started on: Wednesday, 05 February 2020 02:14PM

    Process ID: 4109
    Host:       rh05314.villa-bosch.de
    PSIDATADIR: /media/miniconda3/envs/p4env/share/psi4
    Memory:     500.0 MiB
    Threads:    1
    
  ==> Input File <==

--------------------------------------------------------------------------

# PYTHONPATH must include directory above plugin directory.
#     Define either externally or here, then import plugin.

molecule {
  C    0.00000001055502      0.00000000005674     -0.00000000975578
  O   -0.00000000527751      1.15997617530518      0.00000000487789
  O   -0.00000000527751     -1.15997617536192      0.00000000487789
symmetry c1
}

set {
  basis def2-TZVP
}


set scf {
 reference uks
}

energy('TPSSH')
--------------------------------------------------------------------------

*** tstart() called on rh05314.villa-bosch.de
*** at Wed Feb  5 14:14:10 2020

   => Loading Basis Set <=

    Name: DEF2-TZVP
    Role: ORBITAL
    Keyword: BASIS
    atoms 1   entry C          line   123 file /media/miniconda3/envs/p4env/share/psi4/basis/def2-tzvp.gbs 
    atoms 2-3 entry O          line   189 file /media/miniconda3/envs/p4env/share/psi4/basis/def2-tzvp.gbs 


         ---------------------------------------------------------
                                   SCF
               by Justin Turney, Rob Parrish, Andy Simmonett
                          and Daniel G. A. Smith
                              UKS Reference
                        1 Threads,    500 MiB Core
         ---------------------------------------------------------

  ==> Geometry <==

    Molecular point group: c1
    Full point group: C_inf_v

    Geometry (in Angstrom), charge = 0, multiplicity = 1:

       Center              X                  Y                   Z               Mass       
    ------------   -----------------  -----------------  -----------------  -----------------
         C            0.000000011514     0.000000010642     0.000000000062    12.000000000000
         O            0.000000011514     0.000000010642     1.159976175310    15.994914619570
         O           -0.000000020151    -0.000000018626    -1.159976175357    15.994914619570

  Running in c1 symmetry.

  Rotational constants: A = ************  B =      0.39164  C =      0.39164 [cm^-1]
  Rotational constants: A = ************  B =  11741.05544  C =  11741.05544 [MHz]
  Nuclear repulsion =   58.393167382323995

  Charge       = 0
  Multiplicity = 1
  Electrons    = 22
  Nalpha       = 11
  Nbeta        = 11

  ==> Algorithm <==

  SCF Algorithm Type is DF.
  DIIS enabled.
  MOM disabled.
  Fractional occupation disabled.
  Guess Type is SAD.
  Energy threshold   = 1.00e-06
  Density threshold  = 1.00e-06
  Integral threshold = 0.00e+00

  ==> Primary Basis <==

  Basis Set: DEF2-TZVP
    Blend: DEF2-TZVP
    Number of shells: 33
    Number of basis function: 93
    Number of Cartesian functions: 108
    Spherical Harmonics?: true
    Max angular momentum: 3

  ==> DFT Potential <==

   => Composite Functional: TPSSH <= 

    TPSSh Hyb-GGA Exchange-Correlation Functional

    V. N. Staroverov, G. E. Scuseria, J. Tao, and J. P. Perdew, J. Chem. Phys. 119, 12129 (2003)

    Deriv               =              1
    GGA                 =           TRUE
    Meta                =           TRUE

    Exchange Hybrid     =           TRUE
    MP2 Hybrid          =          FALSE

   => Exchange Functionals <=

    0.9000   Tao, Perdew, Staroverov & Scuseria

   => Exact (HF) Exchange <=

    0.1000               HF 

   => Correlation Functionals <=

    1.0000   Tao, Perdew, Staroverov & Scuseria

   => Molecular Quadrature <=

    Radial Scheme          =       TREUTLER
    Pruning Scheme         =           FLAT
    Nuclear Scheme         =       TREUTLER

    BS radius alpha        =              1
    Pruning alpha          =              1
    Radial Points          =             75
    Spherical Points       =            302
    Total Points           =          66112
    Total Blocks           =            557
    Max Points             =            251
    Max Functions          =             92

   => Loading Basis Set <=

    Name: (DEF2-TZVP AUX)
    Role: JKFIT
    Keyword: DF_BASIS_SCF
    atoms 1   entry C          line   203 file /media/miniconda3/envs/p4env/share/psi4/basis/def2-tzvp-jkfit.gbs 
    atoms 2-3 entry O          line   323 file /media/miniconda3/envs/p4env/share/psi4/basis/def2-tzvp-jkfit.gbs 

  ==> Pre-Iterations <==

   -------------------------------------------------------
    Irrep   Nso     Nmo     Nalpha   Nbeta   Ndocc  Nsocc
   -------------------------------------------------------
     A         93      93       0       0       0       0
   -------------------------------------------------------
    Total      93      93      11      11      11       0
   -------------------------------------------------------

  ==> Integral Setup <==

  DFHelper Memory: AOs need 0.017 GiB; user supplied 0.017 GiB. Using in-core AOs.

  ==> MemDFJK: Density-Fitted J/K Matrices <==

    J tasked:                   Yes
    K tasked:                   Yes
    wK tasked:                   No
    OpenMP threads:               1
    Memory [MiB]:                17
    Algorithm:                 Core
    Schwarz Cutoff:           1E-12
    Mask sparsity (%):       0.8325
    Fitting Condition:        1E-10

   => Auxiliary Basis Set <=

  Basis Set: (DEF2-TZVP AUX)
    Blend: DEF2-TZVP-JKFIT
    Number of shells: 75
    Number of basis function: 229
    Number of Cartesian functions: 275
    Spherical Harmonics?: true
    Max angular momentum: 4

  Cached 100.0% of DFT collocation blocks in 0.379 [GiB].

  Minimum eigenvalue in the overlap matrix is 4.7460062642E-04.
  Using Symmetric Orthogonalization.

  SCF Guess: Superposition of Atomic Densities via on-the-fly atomic UHF.

  ==> Iterations <==

                           Total Energy        Delta E     RMS |[F,P]|

   @DF-UKS iter SAD:  -188.23730522527944   -1.88237e+02   0.00000e+00 
   @DF-UKS iter   1:  -188.52421397075949   -2.86909e-01   7.23710e-03 DIIS
   @DF-UKS iter   2:  -188.32374225021300    2.00472e-01   1.08294e-02 DIIS
   @DF-UKS iter   3:  -188.65785149855492   -3.34109e-01   1.73096e-03 DIIS
   @DF-UKS iter   4:  -188.66825334100457   -1.04018e-02   1.11422e-04 DIIS
   @DF-UKS iter   5:  -188.66829485714561   -4.15161e-05   1.14491e-05 DIIS
   @DF-UKS iter   6:  -188.66829518570268   -3.28557e-07   1.44064e-06 DIIS
   @DF-UKS iter   7:  -188.66829519137542   -5.67275e-09   4.79570e-08 DIIS
  Energy and wave function converged.


  ==> Post-Iterations <==

   @Spin Contamination Metric:   7.815970093E-14
   @S^2 Expected:                0.000000000E+00
   @S^2 Observed:                7.815970093E-14
   @S   Expected:                0.000000000E+00
   @S   Observed:                0.000000000E+00

    Orbital Energies [Eh]
    ---------------------

    Alpha Occupied:                                                       

       1A    -19.134728     2A    -19.134727     3A    -10.290959  
       4A     -1.139241     5A     -1.098419     6A     -0.546423  
       7A     -0.500560     8A     -0.499471     9A     -0.499471  
      10A     -0.358436    11A     -0.358436  

    Alpha Virtual:                                                        

      12A      0.016520    13A      0.016520    14A      0.017190  
      15A      0.166915    16A      0.186623    17A      0.186623  
      18A      0.278506    19A      0.358775    20A      0.418414  
      21A      0.428099    22A      0.428099    23A      0.581344  
      24A      0.581344    25A      0.591618    26A      0.591618  
      27A      0.707582    28A      0.808168    29A      0.922298  
      30A      0.958873    31A      0.958873    32A      1.275748  
      33A      1.304090    34A      1.304090    35A      1.336555  
      36A      1.367697    37A      1.367697    38A      1.643713  
      39A      1.643713    40A      1.675834    41A      1.883024  
      42A      1.883024    43A      1.994026    44A      1.994026  
      45A      2.215950    46A      2.412435    47A      2.579656  
      48A      2.579656    49A      2.671962    50A      2.671962  
      51A      2.727885    52A      2.727885    53A      2.821089  
      54A      2.821092    55A      2.867124    56A      2.910836  
      57A      2.910838    58A      3.031725    59A      3.314288  
      60A      3.337719    61A      3.337719    62A      3.601755  
      63A      3.816067    64A      3.816067    65A      4.823940  
      66A      4.843438    67A      5.095274    68A      5.095274  
      69A      5.165488    70A      5.165488    71A      5.215583  
      72A      5.215589    73A      5.814983    74A      5.814984  
      75A      6.019785    76A      6.140641    77A      6.140641  
      78A      6.270719    79A      6.270782    80A      6.296756  
      81A      6.296811    82A      6.465864    83A      6.465864  
      84A      6.753105    85A      6.753105    86A      6.866487  
      87A      7.031650    88A      7.031650    89A      7.382746  
      90A      7.550397    91A     24.017929    92A     43.967241  
      93A     44.130618  

    Beta Occupied:                                                        

       1A    -19.134728     2A    -19.134727     3A    -10.290959  
       4A     -1.139241     5A     -1.098419     6A     -0.546423  
       7A     -0.500560     8A     -0.499471     9A     -0.499471  
      10A     -0.358436    11A     -0.358436  

    Beta Virtual:                                                         

      12A      0.016520    13A      0.016520    14A      0.017190  
      15A      0.166915    16A      0.186623    17A      0.186623  
      18A      0.278506    19A      0.358775    20A      0.418414  
      21A      0.428099    22A      0.428099    23A      0.581344  
      24A      0.581344    25A      0.591618    26A      0.591618  
      27A      0.707582    28A      0.808168    29A      0.922298  
      30A      0.958873    31A      0.958873    32A      1.275748  
      33A      1.304090    34A      1.304090    35A      1.336555  
      36A      1.367697    37A      1.367697    38A      1.643713  
      39A      1.643713    40A      1.675834    41A      1.883024  
      42A      1.883024    43A      1.994026    44A      1.994026  
      45A      2.215950    46A      2.412435    47A      2.579656  
      48A      2.579656    49A      2.671962    50A      2.671962  
      51A      2.727885    52A      2.727885    53A      2.821089  
      54A      2.821092    55A      2.867124    56A      2.910836  
      57A      2.910838    58A      3.031725    59A      3.314288  
      60A      3.337719    61A      3.337719    62A      3.601755  
      63A      3.816067    64A      3.816067    65A      4.823940  
      66A      4.843438    67A      5.095274    68A      5.095274  
      69A      5.165488    70A      5.165488    71A      5.215583  
      72A      5.215589    73A      5.814983    74A      5.814984  
      75A      6.019785    76A      6.140641    77A      6.140641  
      78A      6.270719    79A      6.270782    80A      6.296756  
      81A      6.296811    82A      6.465864    83A      6.465864  
      84A      6.753105    85A      6.753105    86A      6.866487  
      87A      7.031650    88A      7.031650    89A      7.382746  
      90A      7.550397    91A     24.017929    92A     43.967241  
      93A     44.130618  

    Final Occupation by Irrep:
              A 
    DOCC [    11 ]
    SOCC [     0 ]

  @DF-UKS Final Energy:  -188.66829519137542

   => Energetics <=

    Nuclear Repulsion Energy =             58.3931673823239947
    One-Electron Energy =                -373.0199582535158243
    Two-Electron Energy =                 146.3826526560866910
    DFT Exchange-Correlation Energy =     -20.4241569762703108
    Empirical Dispersion Energy =           0.0000000000000000
    VV10 Nonlocal Energy =                  0.0000000000000000
    Total Energy =                       -188.6682951913754209

  UHF NO Occupations:
  HONO-2 :    9  A 2.0000000
  HONO-1 :   10  A 2.0000000
  HONO-0 :   11  A 2.0000000
  LUNO+0 :   12  A 0.0000000
  LUNO+1 :   13  A 0.0000000
  LUNO+2 :   14  A 0.0000000
  LUNO+3 :   15  A 0.0000000


Computation Completed


Properties will be evaluated at   0.000000,   0.000000,   0.000000 [a0]

Properties computed using the SCF density matrix

  Nuclear Dipole Moment: [e a0]
     X:    -0.0000      Y:    -0.0000      Z:    -0.0000

  Electronic Dipole Moment: [e a0]
     X:     0.0000      Y:     0.0000      Z:    -0.0000

  Dipole Moment: [e a0]
     X:     0.0000      Y:     0.0000      Z:    -0.0000     Total:     0.0000

  Dipole Moment: [D]
     X:     0.0000      Y:     0.0000      Z:    -0.0000     Total:     0.0000


*** tstop() called on rh05314.villa-bosch.de at Wed Feb  5 14:14:14 2020
Module time:
	user time   =       3.95 seconds =       0.07 minutes
	system time =       0.09 seconds =       0.00 minutes
	total time  =          4 seconds =       0.07 minutes
Total time:
	user time   =       3.95 seconds =       0.07 minutes
	system time =       0.09 seconds =       0.00 minutes
	total time  =          4 seconds =       0.07 minutes

    Psi4 stopped on: Wednesday, 05 February 2020 02:14PM
    Psi4 wall time for execution: 0:00:04.06

*** Psi4 exiting successfully. Buy a developer a beer!
