
    -----------------------------------------------------------------------
          Psi4: An Open-Source Ab Initio Electronic Structure Package
                               Psi4 1.3.2 release

                         Git: Rev {HEAD} ecbda83 


    R. M. Parrish, L. A. Burns, D. G. A. Smith, A. C. Simmonett,
    A. E. DePrince III, E. G. Hohenstein, U. Bozkaya, A. Yu. Sokolov,
    R. Di Remigio, R. M. Richard, J. F. Gonthier, A. M. James,
    H. R. McAlexander, A. Kumar, M. Saitow, X. Wang, B. P. Pritchard,
    P. Verma, H. F. Schaefer III, K. Patkowski, R. A. King, E. F. Valeev,
    F. A. Evangelista, J. M. Turney, T. D. Crawford, and C. D. Sherrill,
    J. Chem. Theory Comput. 13(7) pp 3185--3197 (2017).
    (doi: 10.1021/acs.jctc.7b00174)


                         Additional Contributions by
    P. Kraus, H. Kruse, M. H. Lechner, M. C. Schieber, R. A. Shaw,
    A. Alenaizan, R. Galvelis, Z. L. Glick, S. Lehtola, and J. P. Misiewicz

    -----------------------------------------------------------------------


    Psi4 started on: Wednesday, 05 February 2020 01:43PM

    Process ID: 935
    Host:       rh05314.villa-bosch.de
    PSIDATADIR: /media/miniconda3/envs/p4env/share/psi4
    Memory:     500.0 MiB
    Threads:    1
    
  ==> Input File <==

--------------------------------------------------------------------------

# PYTHONPATH must include directory above plugin directory.
#     Define either externally or here, then import plugin.
import psixas

molecule {
  N   -1.22651784160217      0.40019879988830      0.01704879881164
  H   -0.43885155782371      0.15100232225883      0.60864221052405
  H   -0.88355924463589      1.09440986479077     -0.64102616291803
  H   -1.44986135593823     -0.42747098693791     -0.52829484641767
symmetry c1
}

set {
  basis 6-31G*
}


set scf {
 reference uks
 scf_type DF
}

energy('HF')
--------------------------------------------------------------------------

*** tstart() called on rh05314.villa-bosch.de
*** at Wed Feb  5 13:43:42 2020

   => Loading Basis Set <=

    Name: 6-31G*
    Role: ORBITAL
    Keyword: BASIS
    atoms 1   entry N          line   128 file /media/miniconda3/envs/p4env/share/psi4/basis/6-31gs.gbs 
    atoms 2-4 entry H          line    44 file /media/miniconda3/envs/p4env/share/psi4/basis/6-31gs.gbs 


         ---------------------------------------------------------
                                   SCF
               by Justin Turney, Rob Parrish, Andy Simmonett
                          and Daniel G. A. Smith
                              UKS Reference
                        1 Threads,    500 MiB Core
         ---------------------------------------------------------

  ==> Geometry <==

    Molecular point group: c1
    Full point group: C1

    Geometry (in Angstrom), charge = 0, multiplicity = 1:

       Center              X                  Y                   Z               Mass       
    ------------   -----------------  -----------------  -----------------  -----------------
         N           -0.053703241151     0.022649891445     0.036214781014    14.003074004430
         H            0.733963042628    -0.226546586185     0.627808192726     1.007825032230
         H            0.289255355816     0.716860956347    -0.621860180716     1.007825032230
         H           -0.277046755487    -0.805019895381    -0.509128864215     1.007825032230

  Running in c1 symmetry.

  Rotational constants: A =      9.87927  B =      9.87883  C =      6.31326 [cm^-1]
  Rotational constants: A = 296172.97164  B = 296159.82690  C = 189266.91797 [MHz]
  Nuclear repulsion =   11.911859002588059

  Charge       = 0
  Multiplicity = 1
  Electrons    = 10
  Nalpha       = 5
  Nbeta        = 5

  ==> Algorithm <==

  SCF Algorithm Type is DF.
  DIIS enabled.
  MOM disabled.
  Fractional occupation disabled.
  Guess Type is SAD.
  Energy threshold   = 1.00e-06
  Density threshold  = 1.00e-06
  Integral threshold = 0.00e+00

  ==> Primary Basis <==

  Basis Set: 6-31G*
    Blend: 6-31G*
    Number of shells: 12
    Number of basis function: 21
    Number of Cartesian functions: 21
    Spherical Harmonics?: false
    Max angular momentum: 2

   => Loading Basis Set <=

    Name: (6-31G* AUX)
    Role: JKFIT
    Keyword: DF_BASIS_SCF
    atoms 1   entry N          line   171 file /media/miniconda3/envs/p4env/share/psi4/basis/cc-pvdz-jkfit.gbs 
    atoms 2-4 entry H          line    51 file /media/miniconda3/envs/p4env/share/psi4/basis/cc-pvdz-jkfit.gbs 

  ==> Pre-Iterations <==

   -------------------------------------------------------
    Irrep   Nso     Nmo     Nalpha   Nbeta   Ndocc  Nsocc
   -------------------------------------------------------
     A         21      21       0       0       0       0
   -------------------------------------------------------
    Total      21      21       5       5       5       0
   -------------------------------------------------------

  ==> Integral Setup <==

  DFHelper Memory: AOs need 0.001 GiB; user supplied 0.366 GiB. Using in-core AOs.

  ==> MemDFJK: Density-Fitted J/K Matrices <==

    J tasked:                   Yes
    K tasked:                   Yes
    wK tasked:                   No
    OpenMP threads:               1
    Memory [MiB]:               375
    Algorithm:                 Core
    Schwarz Cutoff:           1E-12
    Mask sparsity (%):       0.0000
    Fitting Condition:        1E-10

   => Auxiliary Basis Set <=

  Basis Set: (6-31G* AUX)
    Blend: CC-PVDZ-JKFIT
    Number of shells: 51
    Number of basis function: 156
    Number of Cartesian functions: 156
    Spherical Harmonics?: false
    Max angular momentum: 3

  Minimum eigenvalue in the overlap matrix is 2.2336823494E-02.
  Using Symmetric Orthogonalization.

  SCF Guess: Superposition of Atomic Densities via on-the-fly atomic UHF.

  ==> Iterations <==

                           Total Energy        Delta E     RMS |[F,P]|

   @DF-UKS iter SAD:   -55.69688178673157   -5.56969e+01   0.00000e+00 
   @DF-UKS iter   1:   -56.11287847465389   -4.15997e-01   1.81117e-02 DIIS
   @DF-UKS iter   2:   -56.16804448764656   -5.51660e-02   9.42443e-03 DIIS
   @DF-UKS iter   3:   -56.18345310386802   -1.54086e-02   1.02145e-03 DIIS
   @DF-UKS iter   4:   -56.18386358510585   -4.10481e-04   1.81599e-04 DIIS
   @DF-UKS iter   5:   -56.18387545534166   -1.18702e-05   3.63207e-05 DIIS
   @DF-UKS iter   6:   -56.18387630625865   -8.50917e-07   7.24671e-06 DIIS
   @DF-UKS iter   7:   -56.18387635687398   -5.06153e-08   1.52377e-06 DIIS
   @DF-UKS iter   8:   -56.18387635886027   -1.98629e-09   2.85318e-07 DIIS
  Energy and wave function converged.


  ==> Post-Iterations <==

   @Spin Contamination Metric:   1.776356839E-15
   @S^2 Expected:                0.000000000E+00
   @S^2 Observed:                1.776356839E-15
   @S   Expected:                0.000000000E+00
   @S   Observed:                0.000000000E+00

    Orbital Energies [Eh]
    ---------------------

    Alpha Occupied:                                                       

       1A    -15.539948     2A     -1.134783     3A     -0.621165  
       4A     -0.621104     5A     -0.421751  

    Alpha Virtual:                                                        

       6A      0.219720     7A      0.321173     8A      0.321198  
       9A      0.897286    10A      0.897310    11A      0.970159  
      12A      1.205469    13A      1.219265    14A      1.219346  
      15A      1.371356    16A      1.966604    17A      1.966616  
      18A      2.262170    19A      2.751447    20A      2.751570  
      21A      4.085589  

    Beta Occupied:                                                        

       1A    -15.539948     2A     -1.134783     3A     -0.621165  
       4A     -0.621104     5A     -0.421751  

    Beta Virtual:                                                         

       6A      0.219720     7A      0.321173     8A      0.321198  
       9A      0.897286    10A      0.897310    11A      0.970159  
      12A      1.205469    13A      1.219265    14A      1.219346  
      15A      1.371356    16A      1.966604    17A      1.966616  
      18A      2.262170    19A      2.751447    20A      2.751570  
      21A      4.085589  

    Final Occupation by Irrep:
              A 
    DOCC [     5 ]
    SOCC [     0 ]

  @DF-UKS Final Energy:   -56.18387635886027

   => Energetics <=

    Nuclear Repulsion Energy =             11.9118590025880593
    One-Electron Energy =                 -99.5139651008085480
    Two-Electron Energy =                  31.4182297393602141
    Total Energy =                        -56.1838763588602745

  UHF NO Occupations:
  HONO-2 :    3  A 2.0000000
  HONO-1 :    4  A 2.0000000
  HONO-0 :    5  A 2.0000000
  LUNO+0 :    6  A 0.0000000
  LUNO+1 :    7  A 0.0000000
  LUNO+2 :    8  A 0.0000000
  LUNO+3 :    9  A 0.0000000


Computation Completed


Properties will be evaluated at   0.000000,   0.000000,   0.000000 [a0]

Properties computed using the SCF density matrix

  Nuclear Dipole Moment: [e a0]
     X:     0.6997      Y:    -0.2951      Z:    -0.4718

  Electronic Dipole Moment: [e a0]
     X:    -0.0950      Y:     0.0399      Z:     0.0640

  Dipole Moment: [e a0]
     X:     0.6047      Y:    -0.2551      Z:    -0.4078     Total:     0.7727

  Dipole Moment: [D]
     X:     1.5369      Y:    -0.6485      Z:    -1.0365     Total:     1.9639


*** tstop() called on rh05314.villa-bosch.de at Wed Feb  5 13:43:42 2020
Module time:
	user time   =       0.35 seconds =       0.01 minutes
	system time =       0.00 seconds =       0.00 minutes
	total time  =          0 seconds =       0.00 minutes
Total time:
	user time   =       0.35 seconds =       0.01 minutes
	system time =       0.00 seconds =       0.00 minutes
	total time  =          0 seconds =       0.00 minutes

    Psi4 stopped on: Wednesday, 05 February 2020 01:43PM
    Psi4 wall time for execution: 0:00:00.54

*** Psi4 exiting successfully. Buy a developer a beer!
