
    -----------------------------------------------------------------------
          Psi4: An Open-Source Ab Initio Electronic Structure Package
                               Psi4 1.3.2 release

                         Git: Rev {HEAD} ecbda83 


    R. M. Parrish, L. A. Burns, D. G. A. Smith, A. C. Simmonett,
    A. E. DePrince III, E. G. Hohenstein, U. Bozkaya, A. Yu. Sokolov,
    R. Di Remigio, R. M. Richard, J. F. Gonthier, A. M. James,
    H. R. McAlexander, A. Kumar, M. Saitow, X. Wang, B. P. Pritchard,
    P. Verma, H. F. Schaefer III, K. Patkowski, R. A. King, E. F. Valeev,
    F. A. Evangelista, J. M. Turney, T. D. Crawford, and C. D. Sherrill,
    J. Chem. Theory Comput. 13(7) pp 3185--3197 (2017).
    (doi: 10.1021/acs.jctc.7b00174)


                         Additional Contributions by
    P. Kraus, H. Kruse, M. H. Lechner, M. C. Schieber, R. A. Shaw,
    A. Alenaizan, R. Galvelis, Z. L. Glick, S. Lehtola, and J. P. Misiewicz

    -----------------------------------------------------------------------


    Psi4 started on: Wednesday, 05 February 2020 01:52PM

    Process ID: 1479
    Host:       rh05314.villa-bosch.de
    PSIDATADIR: /media/miniconda3/envs/p4env/share/psi4
    Memory:     500.0 MiB
    Threads:    1
    
  ==> Input File <==

--------------------------------------------------------------------------

# PYTHONPATH must include directory above plugin directory.
#     Define either externally or here, then import plugin.

molecule {
  C    0.00000001055502      0.00000000005674     -0.00000000975578
  O   -0.00000000527751      1.15997617530518      0.00000000487789
  O   -0.00000000527751     -1.15997617536192      0.00000000487789
symmetry c1
}

set {
  basis def2-TZVP
}


set scf {
 reference uks
}

energy('wB97x')
--------------------------------------------------------------------------

*** tstart() called on rh05314.villa-bosch.de
*** at Wed Feb  5 13:52:17 2020

   => Loading Basis Set <=

    Name: DEF2-TZVP
    Role: ORBITAL
    Keyword: BASIS
    atoms 1   entry C          line   123 file /media/miniconda3/envs/p4env/share/psi4/basis/def2-tzvp.gbs 
    atoms 2-3 entry O          line   189 file /media/miniconda3/envs/p4env/share/psi4/basis/def2-tzvp.gbs 


         ---------------------------------------------------------
                                   SCF
               by Justin Turney, Rob Parrish, Andy Simmonett
                          and Daniel G. A. Smith
                              UKS Reference
                        1 Threads,    500 MiB Core
         ---------------------------------------------------------

  ==> Geometry <==

    Molecular point group: c1
    Full point group: C_inf_v

    Geometry (in Angstrom), charge = 0, multiplicity = 1:

       Center              X                  Y                   Z               Mass       
    ------------   -----------------  -----------------  -----------------  -----------------
         C            0.000000011514     0.000000010642     0.000000000062    12.000000000000
         O            0.000000011514     0.000000010642     1.159976175310    15.994914619570
         O           -0.000000020151    -0.000000018626    -1.159976175357    15.994914619570

  Running in c1 symmetry.

  Rotational constants: A = ************  B =      0.39164  C =      0.39164 [cm^-1]
  Rotational constants: A = ************  B =  11741.05544  C =  11741.05544 [MHz]
  Nuclear repulsion =   58.393167382323995

  Charge       = 0
  Multiplicity = 1
  Electrons    = 22
  Nalpha       = 11
  Nbeta        = 11

  ==> Algorithm <==

  SCF Algorithm Type is DF.
  DIIS enabled.
  MOM disabled.
  Fractional occupation disabled.
  Guess Type is SAD.
  Energy threshold   = 1.00e-06
  Density threshold  = 1.00e-06
  Integral threshold = 0.00e+00

  ==> Primary Basis <==

  Basis Set: DEF2-TZVP
    Blend: DEF2-TZVP
    Number of shells: 33
    Number of basis function: 93
    Number of Cartesian functions: 108
    Spherical Harmonics?: true
    Max angular momentum: 3

  ==> DFT Potential <==

   => Composite Functional: WB97X <= 

    wB97X Hyb-GGA Exchange-Correlation Functional

    J.-D. Chai and M. Head-Gordon, J. Chem. Phys. 128, 084106 (2008)

    Deriv               =              1
    GGA                 =           TRUE
    Meta                =          FALSE

    Exchange Hybrid     =           TRUE
    MP2 Hybrid          =          FALSE

   => Exchange-Correlation Functionals <=

    1.0000   wB97X range-separated functional

   => Exact (HF) Exchange <=

    0.8423            HF,LR [omega = 0.3000]
    0.1577               HF 

   => Molecular Quadrature <=

    Radial Scheme          =       TREUTLER
    Pruning Scheme         =           FLAT
    Nuclear Scheme         =       TREUTLER

    BS radius alpha        =              1
    Pruning alpha          =              1
    Radial Points          =             75
    Spherical Points       =            302
    Total Points           =          66112
    Total Blocks           =            557
    Max Points             =            251
    Max Functions          =             92

   => Loading Basis Set <=

    Name: (DEF2-TZVP AUX)
    Role: JKFIT
    Keyword: DF_BASIS_SCF
    atoms 1   entry C          line   203 file /media/miniconda3/envs/p4env/share/psi4/basis/def2-tzvp-jkfit.gbs 
    atoms 2-3 entry O          line   323 file /media/miniconda3/envs/p4env/share/psi4/basis/def2-tzvp-jkfit.gbs 

  ==> Pre-Iterations <==

   -------------------------------------------------------
    Irrep   Nso     Nmo     Nalpha   Nbeta   Ndocc  Nsocc
   -------------------------------------------------------
     A         93      93       0       0       0       0
   -------------------------------------------------------
    Total      93      93      11      11      11       0
   -------------------------------------------------------

  ==> Integral Setup <==

  ==> DiskDFJK: Density-Fitted J/K Matrices <==

    J tasked:                  Yes
    K tasked:                  Yes
    wK tasked:                 Yes
    Omega:               3.000E-01
    OpenMP threads:              1
    Integrals threads:           1
    Memory [MiB]:              219
    Algorithm:                Core
    Integral Cache:           NONE
    Schwarz Cutoff:          1E-12
    Fitting Condition:       1E-10

   => Auxiliary Basis Set <=

  Basis Set: (DEF2-TZVP AUX)
    Blend: DEF2-TZVP-JKFIT
    Number of shells: 75
    Number of basis function: 229
    Number of Cartesian functions: 275
    Spherical Harmonics?: true
    Max angular momentum: 4

  Cached 100.0% of DFT collocation blocks in 0.152 [GiB].

  Minimum eigenvalue in the overlap matrix is 4.7460062642E-04.
  Using Symmetric Orthogonalization.

  SCF Guess: Superposition of Atomic Densities via on-the-fly atomic UHF.

  ==> Iterations <==

                           Total Energy        Delta E     RMS |[F,P]|

   @DF-UKS iter SAD:  -187.93302564265701   -1.87933e+02   0.00000e+00 
   @DF-UKS iter   1:  -188.50264579721335   -5.69620e-01   6.60730e-03 DIIS
   @DF-UKS iter   2:  -188.46568595853751    3.69598e-02   7.63471e-03 DIIS
   @DF-UKS iter   3:  -188.61954870972227   -1.53863e-01   3.33127e-04 DIIS
   @DF-UKS iter   4:  -188.61991262224149   -3.63913e-04   7.79012e-05 DIIS
   @DF-UKS iter   5:  -188.61993157638898   -1.89541e-05   7.13671e-06 DIIS
   @DF-UKS iter   6:  -188.61993187697016   -3.00581e-07   1.28868e-06 DIIS
   @DF-UKS iter   7:  -188.61993188889016   -1.19200e-08   2.44761e-07 DIIS
  Energy and wave function converged.


  ==> Post-Iterations <==

   @Spin Contamination Metric:   1.030286967E-13
   @S^2 Expected:                0.000000000E+00
   @S^2 Observed:                1.030286967E-13
   @S   Expected:                0.000000000E+00
   @S   Observed:                0.000000000E+00

    Orbital Energies [Eh]
    ---------------------

    Alpha Occupied:                                                       

       1A    -19.277865     2A    -19.277841     3A    -10.449453  
       4A     -1.294917     5A     -1.250938     6A     -0.683949  
       7A     -0.640680     8A     -0.640680     9A     -0.637660  
      10A     -0.482225    11A     -0.482225  

    Alpha Virtual:                                                        

      12A      0.110548    13A      0.127330    14A      0.127330  
      15A      0.259833    16A      0.277612    17A      0.277612  
      18A      0.394935    19A      0.461177    20A      0.519026  
      21A      0.531377    22A      0.531377    23A      0.681650  
      24A      0.681650    25A      0.693556    26A      0.693556  
      27A      0.806363    28A      0.904931    29A      1.053464  
      30A      1.077137    31A      1.077137    32A      1.381102  
      33A      1.409618    34A      1.409618    35A      1.444175  
      36A      1.490027    37A      1.490027    38A      1.765524  
      39A      1.765525    40A      1.787850    41A      2.005451  
      42A      2.005451    43A      2.111978    44A      2.111978  
      45A      2.337321    46A      2.526621    47A      2.684744  
      48A      2.684744    49A      2.799275    50A      2.799275  
      51A      2.840730    52A      2.840730    53A      2.925947  
      54A      2.925954    55A      2.989268    56A      3.012616  
      57A      3.012617    58A      3.148022    59A      3.414285  
      60A      3.448404    61A      3.448404    62A      3.719784  
      63A      3.911469    64A      3.911469    65A      4.922139  
      66A      4.932628    67A      5.168869    68A      5.168869  
      69A      5.238005    70A      5.238005    71A      5.288621  
      72A      5.288623    73A      5.889925    74A      5.889928  
      75A      6.116791    76A      6.228663    77A      6.228663  
      78A      6.365631    79A      6.365635    80A      6.378110  
      81A      6.378112    82A      6.534971    83A      6.534971  
      84A      6.830961    85A      6.830961    86A      6.952444  
      87A      7.097776    88A      7.097776    89A      7.466777  
      90A      7.625577    91A     24.007183    92A     43.903950  
      93A     44.065879  

    Beta Occupied:                                                        

       1A    -19.277865     2A    -19.277841     3A    -10.449453  
       4A     -1.294917     5A     -1.250938     6A     -0.683949  
       7A     -0.640680     8A     -0.640680     9A     -0.637660  
      10A     -0.482225    11A     -0.482225  

    Beta Virtual:                                                         

      12A      0.110548    13A      0.127330    14A      0.127330  
      15A      0.259833    16A      0.277612    17A      0.277612  
      18A      0.394935    19A      0.461177    20A      0.519026  
      21A      0.531377    22A      0.531377    23A      0.681650  
      24A      0.681650    25A      0.693556    26A      0.693556  
      27A      0.806363    28A      0.904931    29A      1.053464  
      30A      1.077137    31A      1.077137    32A      1.381102  
      33A      1.409618    34A      1.409618    35A      1.444175  
      36A      1.490027    37A      1.490027    38A      1.765524  
      39A      1.765525    40A      1.787850    41A      2.005451  
      42A      2.005451    43A      2.111978    44A      2.111978  
      45A      2.337321    46A      2.526621    47A      2.684744  
      48A      2.684744    49A      2.799275    50A      2.799275  
      51A      2.840730    52A      2.840730    53A      2.925947  
      54A      2.925954    55A      2.989268    56A      3.012616  
      57A      3.012617    58A      3.148022    59A      3.414285  
      60A      3.448404    61A      3.448404    62A      3.719784  
      63A      3.911469    64A      3.911469    65A      4.922139  
      66A      4.932628    67A      5.168869    68A      5.168869  
      69A      5.238005    70A      5.238005    71A      5.288621  
      72A      5.288623    73A      5.889925    74A      5.889928  
      75A      6.116791    76A      6.228663    77A      6.228663  
      78A      6.365631    79A      6.365635    80A      6.378110  
      81A      6.378112    82A      6.534971    83A      6.534971  
      84A      6.830961    85A      6.830961    86A      6.952444  
      87A      7.097776    88A      7.097776    89A      7.466777  
      90A      7.625577    91A     24.007183    92A     43.903950  
      93A     44.065879  

    Final Occupation by Irrep:
              A 
    DOCC [    11 ]
    SOCC [     0 ]

  @DF-UKS Final Energy:  -188.61993188889016

   => Energetics <=

    Nuclear Repulsion Energy =             58.3931673823239947
    One-Electron Energy =                -372.9374039227949424
    Two-Electron Energy =                 142.0937613992369961
    DFT Exchange-Correlation Energy =     -16.1694567476562234
    Empirical Dispersion Energy =           0.0000000000000000
    VV10 Nonlocal Energy =                  0.0000000000000000
    Total Energy =                       -188.6199318888901644

  UHF NO Occupations:
  HONO-2 :    9  A 2.0000000
  HONO-1 :   10  A 2.0000000
  HONO-0 :   11  A 2.0000000
  LUNO+0 :   12  A 0.0000000
  LUNO+1 :   13  A 0.0000000
  LUNO+2 :   14  A 0.0000000
  LUNO+3 :   15  A 0.0000000


Computation Completed


Properties will be evaluated at   0.000000,   0.000000,   0.000000 [a0]

Properties computed using the SCF density matrix

  Nuclear Dipole Moment: [e a0]
     X:    -0.0000      Y:    -0.0000      Z:    -0.0000

  Electronic Dipole Moment: [e a0]
     X:     0.0000      Y:     0.0000      Z:    -0.0000

  Dipole Moment: [e a0]
     X:     0.0000      Y:     0.0000      Z:    -0.0000     Total:     0.0000

  Dipole Moment: [D]
     X:     0.0000      Y:     0.0000      Z:    -0.0000     Total:     0.0000


*** tstop() called on rh05314.villa-bosch.de at Wed Feb  5 13:52:20 2020
Module time:
	user time   =       2.53 seconds =       0.04 minutes
	system time =       0.05 seconds =       0.00 minutes
	total time  =          3 seconds =       0.05 minutes
Total time:
	user time   =       2.53 seconds =       0.04 minutes
	system time =       0.05 seconds =       0.00 minutes
	total time  =          3 seconds =       0.05 minutes

    Psi4 stopped on: Wednesday, 05 February 2020 01:52PM
    Psi4 wall time for execution: 0:00:02.61

*** Psi4 exiting successfully. Buy a developer a beer!
