
    -----------------------------------------------------------------------
          Psi4: An Open-Source Ab Initio Electronic Structure Package
                               Psi4 1.3.2 release

                         Git: Rev {HEAD} ecbda83 


    R. M. Parrish, L. A. Burns, D. G. A. Smith, A. C. Simmonett,
    A. E. DePrince III, E. G. Hohenstein, U. Bozkaya, A. Yu. Sokolov,
    R. Di Remigio, R. M. Richard, J. F. Gonthier, A. M. James,
    H. R. McAlexander, A. Kumar, M. Saitow, X. Wang, B. P. Pritchard,
    P. Verma, H. F. Schaefer III, K. Patkowski, R. A. King, E. F. Valeev,
    F. A. Evangelista, J. M. Turney, T. D. Crawford, and C. D. Sherrill,
    J. Chem. Theory Comput. 13(7) pp 3185--3197 (2017).
    (doi: 10.1021/acs.jctc.7b00174)


                         Additional Contributions by
    P. Kraus, H. Kruse, M. H. Lechner, M. C. Schieber, R. A. Shaw,
    A. Alenaizan, R. Galvelis, Z. L. Glick, S. Lehtola, and J. P. Misiewicz

    -----------------------------------------------------------------------


    Psi4 started on: Wednesday, 05 February 2020 01:43PM

    Process ID: 842
    Host:       rh05314.villa-bosch.de
    PSIDATADIR: /media/miniconda3/envs/p4env/share/psi4
    Memory:     500.0 MiB
    Threads:    1
    
  ==> Input File <==

--------------------------------------------------------------------------

# PYTHONPATH must include directory above plugin directory.
#     Define either externally or here, then import plugin.

molecule {
  C    0.00000001055502      0.00000000005674     -0.00000000975578
  O   -0.00000000527751      1.15997617530518      0.00000000487789
  O   -0.00000000527751     -1.15997617536192      0.00000000487789
symmetry c1
}

set {
  basis def2-TZVP
}


set scf {
 reference uks
}

energy('B3LYP')
--------------------------------------------------------------------------

*** tstart() called on rh05314.villa-bosch.de
*** at Wed Feb  5 13:43:27 2020

   => Loading Basis Set <=

    Name: DEF2-TZVP
    Role: ORBITAL
    Keyword: BASIS
    atoms 1   entry C          line   123 file /media/miniconda3/envs/p4env/share/psi4/basis/def2-tzvp.gbs 
    atoms 2-3 entry O          line   189 file /media/miniconda3/envs/p4env/share/psi4/basis/def2-tzvp.gbs 


         ---------------------------------------------------------
                                   SCF
               by Justin Turney, Rob Parrish, Andy Simmonett
                          and Daniel G. A. Smith
                              UKS Reference
                        1 Threads,    500 MiB Core
         ---------------------------------------------------------

  ==> Geometry <==

    Molecular point group: c1
    Full point group: C_inf_v

    Geometry (in Angstrom), charge = 0, multiplicity = 1:

       Center              X                  Y                   Z               Mass       
    ------------   -----------------  -----------------  -----------------  -----------------
         C            0.000000011514     0.000000010642     0.000000000062    12.000000000000
         O            0.000000011514     0.000000010642     1.159976175310    15.994914619570
         O           -0.000000020151    -0.000000018626    -1.159976175357    15.994914619570

  Running in c1 symmetry.

  Rotational constants: A = ************  B =      0.39164  C =      0.39164 [cm^-1]
  Rotational constants: A = ************  B =  11741.05544  C =  11741.05544 [MHz]
  Nuclear repulsion =   58.393167382323995

  Charge       = 0
  Multiplicity = 1
  Electrons    = 22
  Nalpha       = 11
  Nbeta        = 11

  ==> Algorithm <==

  SCF Algorithm Type is DF.
  DIIS enabled.
  MOM disabled.
  Fractional occupation disabled.
  Guess Type is SAD.
  Energy threshold   = 1.00e-06
  Density threshold  = 1.00e-06
  Integral threshold = 0.00e+00

  ==> Primary Basis <==

  Basis Set: DEF2-TZVP
    Blend: DEF2-TZVP
    Number of shells: 33
    Number of basis function: 93
    Number of Cartesian functions: 108
    Spherical Harmonics?: true
    Max angular momentum: 3

  ==> DFT Potential <==

   => Composite Functional: B3LYP <= 

    B3LYP Hyb-GGA Exchange-Correlation Functional

    P. J. Stephens, F. J. Devlin, C. F. Chabalowski, and M. J. Frisch, J. Phys. Chem. 98, 11623 (1994)

    Deriv               =              1
    GGA                 =           TRUE
    Meta                =          FALSE

    Exchange Hybrid     =           TRUE
    MP2 Hybrid          =          FALSE

   => Exchange Functionals <=

    0.0800   Slater exchange
    0.7200         Becke 88

   => Exact (HF) Exchange <=

    0.2000               HF 

   => Correlation Functionals <=

    0.1900   Vosko, Wilk & Nusair (VWN5_RPA)
    0.8100   Lee, Yang & Parr

   => Molecular Quadrature <=

    Radial Scheme          =       TREUTLER
    Pruning Scheme         =           FLAT
    Nuclear Scheme         =       TREUTLER

    BS radius alpha        =              1
    Pruning alpha          =              1
    Radial Points          =             75
    Spherical Points       =            302
    Total Points           =          66112
    Total Blocks           =            557
    Max Points             =            251
    Max Functions          =             92

   => Loading Basis Set <=

    Name: (DEF2-TZVP AUX)
    Role: JKFIT
    Keyword: DF_BASIS_SCF
    atoms 1   entry C          line   203 file /media/miniconda3/envs/p4env/share/psi4/basis/def2-tzvp-jkfit.gbs 
    atoms 2-3 entry O          line   323 file /media/miniconda3/envs/p4env/share/psi4/basis/def2-tzvp-jkfit.gbs 

  ==> Pre-Iterations <==

   -------------------------------------------------------
    Irrep   Nso     Nmo     Nalpha   Nbeta   Ndocc  Nsocc
   -------------------------------------------------------
     A         93      93       0       0       0       0
   -------------------------------------------------------
    Total      93      93      11      11      11       0
   -------------------------------------------------------

  ==> Integral Setup <==

  DFHelper Memory: AOs need 0.017 GiB; user supplied 0.215 GiB. Using in-core AOs.

  ==> MemDFJK: Density-Fitted J/K Matrices <==

    J tasked:                   Yes
    K tasked:                   Yes
    wK tasked:                   No
    OpenMP threads:               1
    Memory [MiB]:               219
    Algorithm:                 Core
    Schwarz Cutoff:           1E-12
    Mask sparsity (%):       0.8325
    Fitting Condition:        1E-10

   => Auxiliary Basis Set <=

  Basis Set: (DEF2-TZVP AUX)
    Blend: DEF2-TZVP-JKFIT
    Number of shells: 75
    Number of basis function: 229
    Number of Cartesian functions: 275
    Spherical Harmonics?: true
    Max angular momentum: 4

  Cached 100.0% of DFT collocation blocks in 0.152 [GiB].

  Minimum eigenvalue in the overlap matrix is 4.7460062642E-04.
  Using Symmetric Orthogonalization.

  SCF Guess: Superposition of Atomic Densities via on-the-fly atomic UHF.

  ==> Iterations <==

                           Total Energy        Delta E     RMS |[F,P]|

   @DF-UKS iter SAD:  -188.21218846823979   -1.88212e+02   0.00000e+00 
   @DF-UKS iter   1:  -188.52014213425457   -3.07954e-01   7.39826e-03 DIIS
   @DF-UKS iter   2:  -188.32159729715096    1.98545e-01   1.09921e-02 DIIS
   @DF-UKS iter   3:  -188.66322222045159   -3.41625e-01   1.39645e-03 DIIS
   @DF-UKS iter   4:  -188.66989696978720   -6.67475e-03   1.07684e-04 DIIS
   @DF-UKS iter   5:  -188.66993796026662   -4.09905e-05   8.38394e-06 DIIS
   @DF-UKS iter   6:  -188.66993811347623   -1.53210e-07   1.04780e-06 DIIS
   @DF-UKS iter   7:  -188.66993811662826   -3.15202e-09   3.63528e-08 DIIS
  Energy and wave function converged.


  ==> Post-Iterations <==

   @Spin Contamination Metric:   8.526512829E-14
   @S^2 Expected:                0.000000000E+00
   @S^2 Observed:                8.526512829E-14
   @S   Expected:                0.000000000E+00
   @S   Observed:                0.000000000E+00

    Orbital Energies [Eh]
    ---------------------

    Alpha Occupied:                                                       

       1A    -19.214015     2A    -19.214012     3A    -10.365653  
       4A     -1.170715     5A     -1.131100     6A     -0.571974  
       7A     -0.530072     8A     -0.526919     9A     -0.526919  
      10A     -0.382849    11A     -0.382849  

    Alpha Virtual:                                                        

      12A      0.013253    13A      0.023606    14A      0.023606  
      15A      0.160796    16A      0.180601    17A      0.180601  
      18A      0.287813    19A      0.350551    20A      0.410159  
      21A      0.419966    22A      0.419966    23A      0.581140  
      24A      0.581140    25A      0.586045    26A      0.586045  
      27A      0.706691    28A      0.808218    29A      0.927580  
      30A      0.966293    31A      0.966293    32A      1.270366  
      33A      1.293516    34A      1.293516    35A      1.332898  
      36A      1.375937    37A      1.375937    38A      1.649011  
      39A      1.649011    40A      1.674025    41A      1.888594  
      42A      1.888594    43A      1.994999    44A      1.994999  
      45A      2.214217    46A      2.409725    47A      2.571988  
      48A      2.571988    49A      2.664678    50A      2.664678  
      51A      2.723771    52A      2.723771    53A      2.821428  
      54A      2.821428    55A      2.860623    56A      2.900408  
      57A      2.900408    58A      3.021542    59A      3.296679  
      60A      3.328050    61A      3.328050    62A      3.598252  
      63A      3.800657    64A      3.800657    65A      4.802063  
      66A      4.818526    67A      5.053581    68A      5.053581  
      69A      5.122864    70A      5.122864    71A      5.177474  
      72A      5.177475    73A      5.779693    74A      5.779693  
      75A      5.996191    76A      6.115305    77A      6.115305  
      78A      6.255389    79A      6.255402    80A      6.267903  
      81A      6.267915    82A      6.426452    83A      6.426452  
      84A      6.716518    85A      6.716518    86A      6.841899  
      87A      6.988123    88A      6.988123    89A      7.353930  
      90A      7.507716    91A     23.917910    92A     43.844547  
      93A     44.006762  

    Beta Occupied:                                                        

       1A    -19.214015     2A    -19.214012     3A    -10.365653  
       4A     -1.170715     5A     -1.131100     6A     -0.571974  
       7A     -0.530072     8A     -0.526919     9A     -0.526919  
      10A     -0.382849    11A     -0.382849  

    Beta Virtual:                                                         

      12A      0.013253    13A      0.023606    14A      0.023606  
      15A      0.160796    16A      0.180601    17A      0.180601  
      18A      0.287813    19A      0.350551    20A      0.410159  
      21A      0.419966    22A      0.419966    23A      0.581140  
      24A      0.581140    25A      0.586045    26A      0.586045  
      27A      0.706691    28A      0.808218    29A      0.927580  
      30A      0.966293    31A      0.966293    32A      1.270366  
      33A      1.293516    34A      1.293516    35A      1.332898  
      36A      1.375937    37A      1.375937    38A      1.649011  
      39A      1.649011    40A      1.674025    41A      1.888594  
      42A      1.888594    43A      1.994999    44A      1.994999  
      45A      2.214217    46A      2.409725    47A      2.571988  
      48A      2.571988    49A      2.664678    50A      2.664678  
      51A      2.723771    52A      2.723771    53A      2.821428  
      54A      2.821428    55A      2.860623    56A      2.900408  
      57A      2.900408    58A      3.021542    59A      3.296679  
      60A      3.328050    61A      3.328050    62A      3.598252  
      63A      3.800657    64A      3.800657    65A      4.802063  
      66A      4.818526    67A      5.053581    68A      5.053581  
      69A      5.122864    70A      5.122864    71A      5.177474  
      72A      5.177475    73A      5.779693    74A      5.779693  
      75A      5.996191    76A      6.115305    77A      6.115305  
      78A      6.255389    79A      6.255402    80A      6.267903  
      81A      6.267915    82A      6.426452    83A      6.426452  
      84A      6.716518    85A      6.716518    86A      6.841899  
      87A      6.988123    88A      6.988123    89A      7.353930  
      90A      7.507716    91A     23.917910    92A     43.844547  
      93A     44.006762  

    Final Occupation by Irrep:
              A 
    DOCC [    11 ]
    SOCC [     0 ]

  @DF-UKS Final Energy:  -188.66993811662826

   => Energetics <=

    Nuclear Repulsion Energy =             58.3931673823239947
    One-Electron Energy =                -372.9761202366064481
    Two-Electron Energy =                 144.1695326445535272
    DFT Exchange-Correlation Energy =     -18.2565179068993011
    Empirical Dispersion Energy =           0.0000000000000000
    VV10 Nonlocal Energy =                  0.0000000000000000
    Total Energy =                       -188.6699381166282024

  UHF NO Occupations:
  HONO-2 :    9  A 2.0000000
  HONO-1 :   10  A 2.0000000
  HONO-0 :   11  A 2.0000000
  LUNO+0 :   12  A 0.0000000
  LUNO+1 :   13  A 0.0000000
  LUNO+2 :   14  A 0.0000000
  LUNO+3 :   15  A 0.0000000


Computation Completed


Properties will be evaluated at   0.000000,   0.000000,   0.000000 [a0]

Properties computed using the SCF density matrix

  Nuclear Dipole Moment: [e a0]
     X:    -0.0000      Y:    -0.0000      Z:    -0.0000

  Electronic Dipole Moment: [e a0]
     X:     0.0000      Y:     0.0000      Z:    -0.0000

  Dipole Moment: [e a0]
     X:     0.0000      Y:     0.0000      Z:    -0.0000     Total:     0.0000

  Dipole Moment: [D]
     X:     0.0000      Y:     0.0000      Z:    -0.0000     Total:     0.0000


*** tstop() called on rh05314.villa-bosch.de at Wed Feb  5 13:43:29 2020
Module time:
	user time   =       2.12 seconds =       0.04 minutes
	system time =       0.06 seconds =       0.00 minutes
	total time  =          2 seconds =       0.03 minutes
Total time:
	user time   =       2.12 seconds =       0.04 minutes
	system time =       0.06 seconds =       0.00 minutes
	total time  =          2 seconds =       0.03 minutes

    Psi4 stopped on: Wednesday, 05 February 2020 01:43PM
    Psi4 wall time for execution: 0:00:02.19

*** Psi4 exiting successfully. Buy a developer a beer!
