[Molden Format]
[Atoms] (AU)
C    1    6         0.000000021757       0.000000020110       0.000000000117
O    2    8         0.000000021757       0.000000020110       2.192037283393
O    3    8        -0.000000038081      -0.000000035197      -2.192037283480
[GTO]
  1 0
 s    6  1.00
    13575.3496820000         0.0002224581
     2035.2333680000         0.0017232738
      463.2256235900         0.0089255715
      131.2001959800         0.0357279845
       42.8530158910         0.1107625993
       15.5841857660         0.2429562763
 s    2  1.00
        6.2067138508         0.4144026345
        2.5764896527         0.2374496866
 s    1  1.00
        0.5769633942         1.0000000000
 s    1  1.00
        0.2297283136         1.0000000000
 s    1  1.00
        0.0951644400         1.0000000000
 p    4  1.00
       34.6972322440         0.0053333658
        7.9582622826         0.0358641091
        2.3780826883         0.1421587333
        0.8143320818         0.3427047185
 p    1  1.00
        0.2888754725         1.0000000000
 p    1  1.00
        0.1005682367         1.0000000000
 d    1  1.00
        1.0970000000         1.0000000000
 d    1  1.00
        0.3180000000         1.0000000000
 f    1  1.00
        0.7610000000         1.0000000000

  2 0
 s    6  1.00
    27032.3826310000         0.0002172630
     4052.3871392000         0.0016838662
      922.3272271000         0.0087395616
      261.2407098900         0.0352399688
       85.3546413510         0.1115351912
       31.0350352450         0.2558895396
 s    2  1.00
       12.2608607280         0.3976873090
        4.9987076005         0.2462784943
 s    1  1.00
        1.1703108158         1.0000000000
 s    1  1.00
        0.4647474099         1.0000000000
 s    1  1.00
        0.1850453636         1.0000000000
 p    4  1.00
       63.2749548010         0.0060685103
       14.6270493790         0.0419125758
        4.4501223456         0.1615384109
        1.5275799647         0.3570695131
 p    1  1.00
        0.5293511794         1.0000000000
 p    1  1.00
        0.1747842127         1.0000000000
 d    1  1.00
        2.3140000000         1.0000000000
 d    1  1.00
        0.6450000000         1.0000000000
 f    1  1.00
        1.4280000000         1.0000000000

  3 0
 s    6  1.00
    27032.3826310000         0.0002172630
     4052.3871392000         0.0016838662
      922.3272271000         0.0087395616
      261.2407098900         0.0352399688
       85.3546413510         0.1115351912
       31.0350352450         0.2558895396
 s    2  1.00
       12.2608607280         0.3976873090
        4.9987076005         0.2462784943
 s    1  1.00
        1.1703108158         1.0000000000
 s    1  1.00
        0.4647474099         1.0000000000
 s    1  1.00
        0.1850453636         1.0000000000
 p    4  1.00
       63.2749548010         0.0060685103
       14.6270493790         0.0419125758
        4.4501223456         0.1615384109
        1.5275799647         0.3570695131
 p    1  1.00
        0.5293511794         1.0000000000
 p    1  1.00
        0.1747842127         1.0000000000
 d    1  1.00
        2.3140000000         1.0000000000
 d    1  1.00
        0.6450000000         1.0000000000
 f    1  1.00
        1.4280000000         1.0000000000

[5D]
[9G]

[MO]
 Sym= A
 Ene= -1.92778647169261994e+01
 Spin= Alpha
 Occup=  1.00000000000000000e+00
  1  4.05061657661552009e-09
  2 -3.02953052405893017e-08
  3 -4.71952385673660877e-07
  4  3.99588504052450068e-06
  5 -1.62788026922637788e-07
  6  1.87493900255741917e-11
  7  1.73289744473542216e-11
  8  1.37384853862187952e-03
  9 -4.12118287436388403e-12
 10 -3.80873116453977643e-12
 11 -3.00356510329258665e-04
 12 -7.48338410819369337e-11
 13 -6.91689536455044031e-11
 14 -5.48324336892425709e-03
 15  1.33467739193289842e-07
 16 -1.65798473672317909e-11
 17 -1.53247517224758978e-11
 18  5.48876657841499234e-16
 19 -7.41606041715716221e-16
 20  1.71281861860812214e-06
 21 -1.30509503055382897e-10
 22 -1.20627498574780063e-10
 23  1.09277064795284380e-14
 24  7.82816469106082359e-16
 25 -1.80326765212354950e-03
 26 -6.02847933404378959e-11
 27 -5.57196874402805258e-11
 28 -1.44991868917155695e-15
 29 -1.07699826402297954e-16
 30  2.00682244545762678e-16
 31  1.27077775351100017e-16
 32  3.08296074167171918e-01
 33  4.51797434882586169e-01
 34  2.48506674986217653e-02
 35 -1.56329262766177687e-02
 36  1.08570060624671189e-02
 37 -2.19234213777174534e-12
 38 -2.02696789381001057e-12
 39 -1.92698009675307301e-03
 40  7.13025413552470494e-11
 41  6.59041387823768246e-11
 42  1.49670997854027868e-03
 43  5.91824127358372345e-11
 44  5.47011569879965218e-11
 45 -1.13556169240353966e-03
 46  4.50118095191515588e-04
 47  4.91743585033225006e-12
 48  4.54507430142561973e-12
 49  2.32703018453610963e-14
 50 -2.79931129557499902e-16
 51 -6.04873149487723653e-04
 52 -6.72426767469300170e-11
 53 -6.21512696753076048e-11
 54 -1.66483750453878690e-14
 55 -1.00121052717240288e-15
 56  1.89449409176546563e-05
 57  1.77453088964885858e-11
 58  1.64021991083894492e-11
 59  1.87531660373420532e-15
 60  4.13393283848551775e-17
 61  6.02979019964061141e-16
 62 -1.13474300081429065e-15
 63 -3.08233042764026910e-01
 64 -4.51705081193741198e-01
 65 -2.48451418220972317e-02
 66  1.56262551673391412e-02
 67 -1.08573777961116710e-02
 68 -5.03936411948549382e-11
 69 -4.65759343084050899e-11
 70 -1.92652475332976054e-03
 71 -3.05332550968402786e-11
 72 -2.82234390200133362e-11
 73  1.49456156453337680e-03
 74 -9.02096817813837526e-11
 75 -8.33763984250509087e-11
 76 -1.13591921570869591e-03
 77 -4.50077762677443126e-04
 78 -1.63600196681367288e-11
 79 -1.51211474637088419e-11
 80  1.63964258469334102e-14
 81  6.44290182411134848e-16
 82  6.04494869046225949e-04
 83 -3.86836617608976181e-11
 84 -3.57544398819495361e-11
 85 -1.64995545195156241e-14
 86  8.35946060743774867e-16
 87  1.88971146624213310e-05
 88 -1.64857620884066685e-11
 89 -1.52376268721937298e-11
 90 -6.34265858570538587e-16
 91  4.58737586179633350e-17
 92 -1.12241740959774452e-15
 93  3.17304042175485758e-16
 Sym= A
 Ene= -1.92778407488958727e+01
 Spin= Alpha
 Occup=  1.00000000000000000e+00
  1  3.96201752810741232e-05
  2 -2.96330395673800775e-04
  3 -4.61642631108534571e-03
  4  3.90858643202080941e-02
  5 -1.59241286890926385e-03
  6 -2.21834433250103666e-11
  7 -2.05041827536265338e-11
  8 -1.40451338778388709e-07
  9 -2.02861166363564671e-10
 10 -1.87501899440759948e-10
 11  3.08287076475147272e-08
 12  6.09750829489599488e-11
 13  5.63595161702891248e-11
 14  5.60605564023507855e-07
 15  1.30552431302576239e-03
 16  3.08654362954375800e-11
 17  2.85281482688690944e-11
 18  1.89583054980984723e-15
 19  2.31397372411231211e-16
 20  1.67539742570596839e-02
 21  3.96090450189806376e-10
 22  3.66096950626029485e-10
 23 -2.97554517473613558e-15
 24  6.06445194263501908e-16
 25  1.84364485592740774e-07
 26  4.42890991724850324e-11
 27  4.09352991065310435e-11
 28  5.13821011512748574e-15
 29 -2.10920545089347529e-16
 30 -5.93149132387023722e-16
 31  6.79752115823499162e-16
 32  3.08243457017985945e-01
 33  4.51638737844784866e-01
 34  2.70225319495618378e-02
 35 -3.26254000561617963e-02
 36 -1.81904126097335683e-03
 37  2.65570230661229089e-11
 38  2.45442889694079214e-11
 39 -2.22680132310057845e-03
 40 -1.54398538595257006e-10
 41 -1.42704423065839709e-10
 42  1.05072466194245286e-02
 43 -8.44347436340969513e-11
 44 -7.80428114037013460e-11
 45  1.74865367082446127e-03
 46  1.97213598288856022e-04
 47 -1.56653415616346896e-11
 48 -1.44792615490566877e-11
 49  2.23350391918441370e-14
 50 -1.10371929700729017e-16
 51 -1.85001984813696111e-03
 52  1.14146727182844273e-10
 53  1.05502569841858843e-10
 54 -1.70847483955755396e-14
 55 -4.35835156272030698e-16
 56  2.33905112560501709e-04
 57 -1.96757314879713252e-11
 58 -1.81859243276833862e-11
 59  2.10870817706231535e-15
 60  3.37011828649479787e-16
 61  4.70948118350116284e-16
 62 -9.31152747217070749e-16
 63  3.08306486280142289e-01
 64  4.51731105098876373e-01
 65  2.70276124913969122e-02
 66 -3.26285957272917509e-02
 67 -1.81682113369942820e-03
 68  8.73546537420379477e-11
 69  8.07388583885029236e-11
 70  2.22719527611037063e-03
 71 -4.41217805555301178e-10
 72 -4.07807930000828672e-10
 73 -1.05075523620262352e-02
 74 -1.32152809251502033e-10
 75 -1.22146435769901253e-10
 76 -1.74842139128500527e-03
 77  1.97305628292712232e-04
 78  2.49939127024774698e-11
 79  2.31015891484610832e-11
 80 -1.66502955334023437e-14
 81 -7.89279643819505961e-17
 82 -1.85014346876648272e-03
 83 -2.01610542649352192e-10
 84 -1.86344290693211120e-10
 85  1.38730257122641252e-14
 86 -1.15454660666561907e-16
 87 -2.33908980541260340e-04
 88 -3.53141426453060965e-11
 89 -3.26390534469713989e-11
 90  1.00696979386860574e-15
 91 -2.21183532910166583e-16
 92  7.63808817590075192e-16
 93 -7.04836310768062888e-16
 Sym= A
 Ene= -1.04494528148053369e+01
 Spin= Alpha
 Occup=  1.00000000000000000e+00
  1 -4.67977723777787569e-01
  2 -6.06735654906411126e-01
  3 -4.24936796899860400e-02
  4  1.40749165727220484e-02
  5 -2.82639643310458617e-03
  6  7.07501840137258514e-11
  7  6.53935969611661792e-11
  8 -1.18659902984609147e-11
  9  1.91417350522674031e-10
 10  1.76924786075542920e-10
 11 -2.80790623478985368e-10
 12 -8.64320044557301299e-11
 13 -7.98875200667647826e-11
 14 -1.75485478103702877e-10
 15 -5.82126593794126800e-03
 16 -1.37619813253255976e-10
 17 -1.27198674707884141e-10
 18 -1.63199441967847154e-13
 19 -2.97695443471682692e-16
 20 -2.04204516707667339e-03
 21 -4.82751603150537580e-11
 22 -4.46211728074340808e-11
 23  4.94683809053319054e-14
 24 -7.92898820218533469e-17
 25 -2.32789151759354871e-11
 26  1.04915860310535337e-10
 27  9.69729391938113765e-11
 28 -9.28992905358704919e-15
 29 -3.15214042325065679e-17
 30 -4.09621834390736989e-16
 31  5.20613139775155039e-16
 32  1.18725983192911511e-04
 33  3.85411466895318414e-04
 34 -3.60328929114009117e-03
 35  9.65857875552245809e-03
 36 -2.22243651852156981e-03
 37  1.12705876958590452e-12
 38  1.04185543080011730e-12
 39  9.03745106840379928e-04
 40 -4.49948851437399379e-11
 41 -4.15883779767488345e-11
 42 -7.50729626559536092e-03
 43  2.18765881612325274e-11
 44  2.02199735346200483e-11
 45  1.84954719382881888e-03
 46 -3.75828931280565177e-05
 47  3.36903427521299687e-12
 48  3.11392480265610165e-12
 49 -1.47404971313437967e-15
 50  3.04056053651707364e-16
 51  3.98761261604092289e-03
 52  2.81780167683066157e-11
 53  2.60448976279849819e-11
 54 -1.30409327057789139e-14
 55 -3.21010884887681888e-16
 56 -1.07075383562913926e-03
 57 -2.19195721757252020e-12
 58 -2.02625870405430415e-12
 59 -3.33033459732912462e-15
 60 -2.05411766607929978e-16
 61 -1.50680669114871359e-16
 62  9.94104011799523257e-16
 63  1.18725982700875940e-04
 64  3.85411473759083613e-04
 65 -3.60328933210250476e-03
 66  9.65857877565590162e-03
 67 -2.22243721407118164e-03
 68 -2.35438302448293647e-11
 69 -2.17609352455399096e-11
 70 -9.03745095931610381e-04
 71  1.59940002275672861e-10
 72  1.47827695884476404e-10
 73  7.50729610454307309e-03
 74 -2.86125487310761963e-11
 75 -2.64470676615986282e-11
 76 -1.84954734152713556e-03
 77 -3.75828944419017363e-05
 78 -5.14642463759591099e-12
 79 -4.75630076649486137e-12
 80 -8.91984773764646070e-16
 81  1.22707787041633190e-16
 82  3.98761257726284492e-03
 83  1.60362544735817478e-10
 84  1.48218066965514202e-10
 85 -1.93621342203151181e-16
 86  1.05512088132297044e-16
 87  1.07075383548637824e-03
 88  6.94055765968987658e-11
 89  6.41496529264982619e-11
 90  5.39673337213873032e-15
 91  3.73877141451515401e-16
 92 -4.46306401152166166e-16
 93  5.33058765385011309e-16
 Sym= A
 Ene= -1.29491702888998139e+00
 Spin= Alpha
 Occup=  1.00000000000000000e+00
  1  7.60686136257900936e-02
  2  1.59787964830080065e-01
  3 -2.72466296571470978e-01
  4 -9.28848033411505819e-02
  5 -6.19953529005297637e-03
  6  2.81965756682974044e-09
  7  2.60614555576173521e-09
  8 -6.46598777125580629e-09
  9  8.27112982669928179e-10
 10  7.64484686799090861e-10
 11 -3.32716226110074501e-09
 12 -1.51783850595912291e-10
 13 -1.40291774987993510e-10
 14 -3.43867984243809725e-10
 15 -3.16477468833764111e-02
 16 -7.48176479629905466e-10
 17 -6.91524062892566538e-10
 18 -5.20817635786395948e-13
 19 -4.91612338695768069e-16
 20  6.69775155987774925e-03
 21  1.58342052828706051e-10
 22  1.46349017025675879e-10
 23  7.01367584046924930e-13
 24 -3.85480341390368768e-16
 25 -4.72260137618618758e-10
 26  5.67808220594477602e-10
 27  5.24814110525678219e-10
 28 -5.24524316077680687e-13
 29 -3.80231175099433751e-16
 30 -2.37375890791167221e-14
 31  3.10836731294654283e-14
 32  6.15396883951855392e-02
 33  1.44478529224882274e-01
 34 -2.10204740481923835e-01
 35 -2.73445964414567866e-01
 36 -9.07008660892273388e-02
 37  2.28066211260301574e-10
 38  2.10794118155448733e-10
 39  9.32261682205613174e-02
 40 -2.03254753144570149e-10
 41 -1.87866564707943872e-10
 42  7.42623445675615473e-02
 43  2.36668241453899232e-11
 44  2.18763161326394314e-11
 45  1.26516236127696153e-02
 46 -5.16630439853827447e-03
 47 -7.68944045223410483e-12
 48 -7.10678722464799372e-12
 49 -3.64412624093454386e-13
 50 -3.47074293872629269e-16
 51 -1.13874652150648629e-02
 52  2.56985606659612761e-10
 53  2.37526829046387362e-10
 54 -7.54716786279228033e-13
 55  7.18348099249018100e-16
 56  1.48620169699314043e-03
 57 -4.75650111451136318e-11
 58 -4.39634185921937723e-11
 59  1.34165949517060472e-13
 60 -1.50888999037878572e-16
 61 -8.69120314470522233e-15
 62  1.12065349667391813e-14
 63  6.15396848316368539e-02
 64  1.44478520860872178e-01
 65 -2.10204728072996949e-01
 66 -2.73445950092053081e-01
 67 -9.07008627832208703e-02
 68 -2.31682531692666750e-09
 69 -2.14139526176681648e-09
 70 -9.32261632049114497e-02
 71 -2.23046768024120013e-09
 72 -2.06157819362176547e-09
 73 -7.42623416752599824e-02
 74 -3.21697217672650634e-10
 75 -2.97338529998012074e-10
 76 -1.26516235800982514e-02
 77 -5.16630411677154820e-03
 78 -2.36581889978053468e-10
 79 -2.18667533956905536e-10
 80  2.76876428520939598e-13
 81  4.59500723169254545e-16
 82 -1.13874647746258825e-02
 83 -7.95401285442973312e-10
 84 -7.35174793058776068e-10
 85  4.50778142694945934e-13
 86 -1.07124642861491847e-15
 87 -1.48620158429480799e-03
 88 -1.46942401576898166e-10
 89 -1.35815975822186444e-10
 90 -5.91921732430056797e-15
 91 -1.28135221857289328e-16
 92 -8.42191371501627315e-15
 93  1.12054123208070059e-14
 Sym= A
 Ene= -1.25093810287789697e+00
 Spin= Alpha
 Occup=  1.00000000000000000e+00
  1  2.03549175099123463e-09
  2  4.27239006159350992e-09
  3 -3.71198537627462028e-09
  4 -2.23249164026035439e-08
  5 -2.45442319756035204e-09
  6  3.42125146725803573e-09
  7  3.16219007519562763e-09
  8  2.50659339169656270e-01
  9  1.68292322231876664e-09
 10  1.55549329390295137e-09
 11  1.23300037805133517e-01
 12  6.75067791543424704e-11
 13  6.23955135238392263e-11
 14  4.94587499882155439e-03
 15 -1.25230609071123589e-09
 16 -7.04511616684771215e-10
 17 -6.51164584387990165e-10
 18  1.46048763705642386e-13
 19 -1.72693075929826272e-16
 20 -6.81501195235735786e-09
 21 -1.47713718093406049e-10
 22 -1.36529920029150463e-10
 23  1.13181857173002327e-12
 24  8.76569776184692181e-16
 25  1.74113294591301121e-02
 26  5.82114163072517502e-10
 27  5.38037587079038472e-10
 28 -2.70315126168604223e-13
 29 -1.42219902061337736e-16
 30 -8.84566422518840412e-17
 31  2.00410657585771605e-16
 32 -6.75486195875721340e-02
 33 -1.58719164208447339e-01
 34  2.33654174159738548e-01
 35  2.70504726513183968e-01
 36  7.78851628936475804e-02
 37  3.30726794407092339e-10
 38  3.05686651099251042e-10
 39 -9.53184160187826313e-02
 40 -5.47559240753656982e-11
 41 -5.06091591610946451e-11
 42 -5.79464682374355652e-02
 43 -2.90754966505955801e-12
 44 -2.68650416122007522e-12
 45 -2.09193195167193787e-03
 46  5.47472084471057295e-03
 47 -4.05232218719964286e-11
 48 -3.74552197734583388e-11
 49  4.21008950866498440e-13
 50  1.07442782137647201e-16
 51  9.09023676029449383e-03
 52  1.38004042082051724e-10
 53  1.27554951411509259e-10
 54  6.26601967796014782e-13
 55 -8.98475820616513849e-16
 56 -2.20040233887397723e-03
 57 -3.06264368145491310e-11
 58 -2.83080008353642231e-11
 59 -1.95639134179732861e-13
 60  1.20696211485310267e-16
 61  1.07332950362951357e-14
 62 -1.45072113963409443e-14
 63  6.75486227172976406e-02
 64  1.58719171689218314e-01
 65 -2.33654187095050619e-01
 66 -2.70504726658294281e-01
 67 -7.78851556702174763e-02
 68 -2.93273403018100410e-09
 69 -2.71066643509892134e-09
 70 -9.53184214734305313e-02
 71 -1.52706610814841371e-09
 72 -1.41143798447731104e-09
 73 -5.79464653590559681e-02
 74 -5.41999042449921247e-11
 75 -5.00977099749758056e-11
 76 -2.09192805932633449e-03
 77 -5.47472113699207577e-03
 78 -2.99376708304440300e-10
 79 -2.76707422285016135e-10
 80  3.11181607675008801e-13
 81  6.33668202280317451e-16
 82 -9.09023626884925516e-03
 83 -2.91795471557698914e-10
 84 -2.69702373738051594e-10
 85  2.86982612120014510e-13
 86 -1.29454748287950615e-15
 87 -2.20040236676039393e-03
 88 -1.16506479691189183e-10
 89 -1.07684591900898216e-10
 90 -2.65431037631554336e-14
 91 -1.61338348413452957e-16
 92 -1.09861919012874841e-14
 93  1.41872822335295270e-14
 Sym= A
 Ene= -6.83949053810292473e-01
 Spin= Alpha
 Occup=  1.00000000000000000e+00
  1  6.63797092292414959e-02
  2  1.44585363218463658e-01
  3 -2.64217080643001256e-01
  4 -2.52654860148660954e-01
  5 -5.20591030190495525e-03
  6  5.36511660956328935e-10
  7  4.95876446491832675e-10
  8 -6.28594922601090979e-09
  9 -1.12365258601389462e-10
 10 -1.03861304496039101e-10
 11  3.04755859837495420e-09
 12 -7.29173291927280938e-10
 13 -6.73959508585515782e-10
 14  3.36631293311509038e-09
 15 -1.49957204421461293e-02
 16 -3.54509735358480543e-10
 17 -3.27665634018163249e-10
 18 -4.83497689859846816e-13
 19 -8.05795896323827370e-16
 20  7.46696974817398062e-03
 21  1.76523908737836507e-10
 22  1.63158921150598828e-10
 23  2.58418099467959830e-13
 24 -1.16128025837677971e-16
 25  2.21576040497219598e-10
 26  3.38042033693592889e-10
 27  3.12444763669032777e-10
 28 -4.47390870580603527e-13
 29 -1.36880487803783805e-17
 30 -1.61126271255595420e-14
 31  2.15515163551770135e-14
 32 -4.26946513088480722e-02
 33 -1.01929786553094204e-01
 34  1.55248112969642499e-01
 35  2.30372552643728606e-01
 36  1.84887327665745976e-01
 37  3.96842417322407424e-11
 38  3.66777941612397860e-11
 39  2.47581533581294505e-01
 40 -2.66519249806330388e-10
 41 -2.46339890478290746e-10
 42  1.80423001896361207e-01
 43  2.44182756226277885e-10
 44  2.25688972155140127e-10
 45  8.18404378228259621e-02
 46 -6.98897548678782416e-03
 47  8.21273215806903895e-12
 48  7.59021488913588034e-12
 49  2.88840784566966696e-13
 50  5.73553955944041899e-17
 51 -1.10765067254248988e-02
 52  1.55779083617807084e-10
 53  1.43985836974182794e-10
 54  5.13052374447440400e-13
 55 -1.05466907917299294e-15
 56  1.64564611212672128e-03
 57 -5.11859743505671526e-11
 58 -4.73101800824638743e-11
 59  3.47132841270366910e-13
 60 -3.73104718002979022e-16
 61  6.73813870717728263e-15
 62 -9.00020748525471453e-15
 63 -4.26946498437994759e-02
 64 -1.01929783061409748e-01
 65  1.55248107381384864e-01
 66  2.30372545580417865e-01
 67  1.84887333317088814e-01
 68 -6.71880250606409289e-09
 69 -6.21004838384936759e-09
 70 -2.47581519309387044e-01
 71 -5.19171133008662689e-09
 72 -4.79858965636765410e-09
 73 -1.80422988100968129e-01
 74 -1.98990177367783169e-09
 75 -1.83922361982435934e-09
 76 -8.18404295731629400e-02
 77 -6.98897507774911848e-03
 78 -3.38662551779652446e-10
 79 -3.13019224292653954e-10
 80 -2.27397344547226821e-13
 81 -1.01174562024655347e-15
 82 -1.10765050263386504e-02
 83 -6.79495455327856964e-10
 84 -6.28042109170236852e-10
 85 -2.91217149490240169e-13
 86  7.74824522325643508e-16
 87 -1.64564587708112067e-03
 88 -1.61222339542500097e-10
 89 -1.49015551357872522e-10
 90  3.39227953449464765e-13
 91  2.26828463354627362e-16
 92  6.61790025271790790e-15
 93 -8.83337523809022459e-15
 Sym= A
 Ene= -6.40679633978113117e-01
 Spin= Alpha
 Occup=  1.00000000000000000e+00
  1  6.54117469855077762e-10
  2  1.40870982809956542e-09
  3 -2.94986227195771107e-09
  4 -3.20168186259502240e-10
  5 -1.57786560090875333e-09
  6 -2.92478419711746429e-01
  7 -9.56111588950900684e-06
  8  3.99211989476520200e-09
  9 -2.32774892419220336e-01
 10 -7.60940834335030977e-06
 11  3.17721473037192171e-09
 12 -4.86718389459882481e-02
 13 -1.59108180192886782e-06
 14  6.64337836240846374e-10
 15 -4.67148298261180905e-10
 16 -2.40355124655935395e-10
 17 -8.53900575404046496e-15
 18  3.99074849967126388e-10
 19  3.68881123017659097e-10
 20  2.88803829259050822e-10
 21 -4.62658722277995662e-10
 22 -1.53218305984628318e-14
 23  3.90833948656811663e-10
 24  3.61314667042788454e-10
 25  6.87205853801279418e-10
 26 -2.05540834250805132e-02
 27 -6.71912734929359683e-07
 28 -4.43564882236674550e-10
 29 -4.10002146355870849e-10
 30  8.61339958036982030e-08
 31 -1.36664841822341972e-08
 32  6.55440931997574663e-11
 33  1.67745822843164761e-10
 34 -2.70624913985948965e-10
 35 -1.23616388754499593e-09
 36 -1.88681270825977815e-09
 37 -2.60159223154694086e-01
 38 -8.50460176760535922e-06
 39 -1.39892376916647140e-09
 40 -2.06765316330261600e-01
 41 -6.75915561283900640e-06
 42 -3.89390166537594649e-10
 43 -1.00223474829934198e-01
 44 -3.27630414573133246e-06
 45  1.71275909387369798e-11
 46  3.08233794761210720e-11
 47  8.24441174791467474e-03
 48  2.69509717503847029e-07
 49 -1.11912118452199920e-11
 50 -1.03453837471254806e-11
 51 -6.72349784455059163e-12
 52  1.71227296244646464e-02
 53  5.59741815251662145e-07
 54  2.73233566802490770e-11
 55  2.52885217864520195e-11
 56 -3.92586824331190619e-11
 57 -3.38818680283780628e-03
 58 -1.10759783334561445e-07
 59 -2.71949243130124956e-11
 60 -2.51513108896970994e-11
 61 -3.29666466621483722e-08
 62  5.23057806598996387e-09
 63  6.55541466353050171e-11
 64  1.67770385521243096e-10
 65 -2.70664688537564819e-10
 66 -1.23621564503091819e-09
 67 -1.88689212593840015e-09
 68 -2.60159218883373344e-01
 69 -8.50460161467574255e-06
 70  8.50106958737653416e-09
 71 -2.06765313262281120e-01
 72 -6.75915550461289861e-06
 73  6.03391319581696428e-09
 74 -1.00223472695537330e-01
 75 -3.27630407038386900e-06
 76  2.71888078156004504e-09
 77  4.20646547440738522e-10
 78 -8.24441166218589649e-03
 79 -2.69509714831027523e-07
 80 -2.36240309289605594e-10
 81 -2.18368916014418390e-10
 82  8.02893093154203476e-10
 83 -1.71227294541371478e-02
 84 -5.59741808420764730e-07
 85 -4.40079441587967658e-10
 86 -4.06747592469711742e-10
 87  2.65821780878662563e-10
 88 -3.38818676322073277e-03
 89 -1.10759782068822351e-07
 90 -1.19040290828669030e-10
 91 -1.10021570669482597e-10
 92 -3.29657653336985426e-08
 93  5.23057805145016109e-09
 Sym= A
 Ene= -6.40679633906952595e-01
 Spin= Alpha
 Occup=  1.00000000000000000e+00
  1  6.04545865656955870e-10
  2  1.30195247398760724e-09
  3 -2.72630523176330413e-09
  4 -2.95948728117884752e-10
  5 -1.45831163988944169e-09
  6  9.56111589097702844e-06
  7 -2.92478419557931080e-01
  8  3.68974905244052992e-09
  9  7.60940832982422021e-06
 10 -2.32774892783668336e-01
 11  2.93651743747015896e-09
 12  1.59108180712226314e-06
 13 -4.86718387704864960e-02
 14  6.13976638485700623e-10
 15 -4.31743467589343508e-10
 16  7.87305672635208233e-15
 17 -2.53115803913875333e-10
 18 -3.68877241687410535e-10
 19  3.99076784732967931e-10
 20  2.66895790349490985e-10
 21  1.54212642051527180e-14
 22 -4.51172218449646675e-10
 23 -3.61254286908872426e-10
 24  3.90877449825428456e-10
 25  6.35134431646124206e-10
 26  6.71912730921351396e-07
 27 -2.05540835442540315e-02
 28  4.10004945165438796e-10
 29 -4.43562690908522303e-10
 30 -1.36664838962771266e-08
 31 -8.61342052885563961e-08
 32  6.05961529906913991e-11
 33  1.55079315022364710e-10
 34 -2.50184174787550546e-10
 35 -1.14259335416597347e-09
 36 -1.74388588213469664e-09
 37  8.50460176144493433e-06
 38 -2.60159223338701673e-01
 39 -1.29309549626604780e-09
 40  6.75915561478255907e-06
 41 -2.06765316407814093e-01
 42 -3.60022863350081621e-10
 43  3.27630414276124616e-06
 44 -1.00223474896636147e-01
 45  1.57581287053762714e-11
 46  2.84923552037450013e-11
 47 -2.69509717167028348e-07
 48  8.24441175342823657e-03
 49  1.03439062528256889e-11
 50 -1.11933401508438936e-11
 51 -6.20268571364708872e-12
 52 -5.59741817898218918e-07
 53  1.71227295516535351e-02
 54 -2.52480796428128197e-11
 55  2.73547375553245398e-11
 56 -3.62854681041855107e-11
 57  1.10759784476299561e-07
 58 -3.38818678140500543e-03
 59  2.51349807365706315e-11
 60 -2.72078665325947241e-11
 61  5.23057745905731251e-09
 62  3.29656235628277189e-08
 63  6.05669465428691867e-11
 64  1.55011632457045621e-10
 65 -2.50088594855751911e-10
 66 -1.14240130331179223e-09
 67 -1.74379194895405972e-09
 68  8.50460162285793174e-06
 69 -2.60159218724009100e-01
 70  7.85666719823705504e-09
 71  6.75915551140285955e-06
 72 -2.06765312993889228e-01
 73  5.57653261196518739e-09
 74  3.27630407457913510e-06
 75 -1.00223472657313975e-01
 76  2.51278800277271742e-09
 77  3.88764345402082238e-10
 78  2.69509714144578999e-07
 79 -8.24441166491330681e-03
 80  2.18367040814467197e-10
 81 -2.36242295920439271e-10
 82  7.42039914930262147e-10
 83  5.59741812588687015e-07
 84 -1.71227293428664572e-02
 85  4.06789447659332220e-10
 86 -4.40047703628099352e-10
 87  2.45674654727665254e-10
 88  1.10759783239959313e-07
 89 -3.38818673748053417e-03
 90  1.10035279961923912e-10
 91 -1.19029162322185371e-10
 92  5.23057820963422408e-09
 93  3.29665045421177761e-08
 Sym= A
 Ene= -6.37659568341198746e-01
 Spin= Alpha
 Occup=  1.00000000000000000e+00
  1 -1.60162852706803004e-09
  2 -3.48967160854988036e-09
  3  3.32273041358384699e-09
  4  2.43197149824358228e-08
  5  4.36998816381129733e-09
  6 -3.63100522016131890e-09
  7 -3.35623942235251354e-09
  8 -2.66030618308586542e-01
  9 -2.46481626951613564e-09
 10 -2.27831851180727241e-09
 11 -1.80588752413066073e-01
 12  4.00319441150612168e-10
 13  3.69977187969782889e-10
 14  2.93291908896220199e-02
 15  6.47317404542964115e-10
 16  3.03641714556309198e-10
 17  2.80649358583566267e-10
 18 -1.02017950244862949e-13
 19  1.20521296402848552e-16
 20  5.79796096337271050e-09
 21 -3.29858213634892716e-10
 22 -3.04879835733397123e-10
 23 -9.31839444917317312e-15
 24 -1.03442517423908539e-17
 25 -1.54958831051587795e-02
 26 -5.18068519731457235e-10
 27 -4.78854127365955059e-10
 28  4.48462569235612381e-14
 29 -4.38350578233789104e-16
 30  3.60944954718335302e-17
 31 -3.49872986783022524e-17
 32 -3.19508448976415088e-02
 33 -7.64042053741222499e-02
 34  1.13340762574724627e-01
 35  2.09724094226453384e-01
 36  1.63845873259825858e-01
 37 -1.95235266863489917e-09
 38 -1.80466866387127409e-09
 39  2.94368917588382684e-01
 40 -1.23547781138778875e-09
 41 -1.14204365688797995e-09
 42  2.04862327178881282e-01
 43 -8.50096053960124570e-10
 44 -7.85787976964603491e-10
 45  9.09822940894601667e-02
 46 -8.49074133534865987e-03
 47  7.64339663399674479e-11
 48  7.06504011949055839e-11
 49  2.23975498452464196e-13
 50  1.98195110263734974e-16
 51 -1.25834375995717389e-02
 52 -3.02791339981729151e-11
 53 -2.79755645830443955e-11
 54  5.65634056403485729e-13
 55 -2.31561188750442396e-16
 56  2.87758200461260419e-03
 57 -1.51492809674934781e-11
 58 -1.40041101399193238e-11
 59  4.48587190973076636e-13
 60 -5.41046103315524007e-16
 61  3.67068236820748348e-15
 62 -4.66603889009340645e-15
 63  3.19508469585010474e-02
 64  7.64042102074987267e-02
 65 -1.13340768294127855e-01
 66 -2.09724115535142003e-01
 67 -1.63845897087076087e-01
 68  9.98812423711408338e-09
 69  9.23165187294906258e-09
 70  2.94368929329415330e-01
 71  6.82787277141214666e-09
 72  6.31073309232930389e-09
 73  2.04862329869044485e-01
 74  3.33377061142089755e-09
 75  3.08126855395688547e-09
 76  9.09822924005662254e-02
 77  8.49074170156918599e-03
 78  4.77892668226674894e-10
 79  4.41701743954267467e-10
 80  1.82764892373395532e-13
 81  7.31142664262916077e-16
 82  1.25834370866887198e-02
 83  5.64688154810563431e-10
 84  5.21918731230152113e-10
 85  3.63978224611752415e-13
 86 -1.72585405471968152e-15
 87  2.87758204101929045e-03
 88  2.07561114543407271e-10
 89  1.91843402065497162e-10
 90 -3.81573274798615227e-13
 91 -3.26089710646948469e-16
 92 -3.43921861021598593e-15
 93  5.02571102566541047e-15
 Sym= A
 Ene= -4.82225166088350310e-01
 Spin= Alpha
 Occup=  1.00000000000000000e+00
  1 -4.82717840068154601e-17
  2  1.96498595576978481e-16
  3  5.46671101579495333e-16
  4 -1.25045325338272108e-14
  5  2.01953708834176962e-15
  6 -2.00720408375067454e-09
  7  3.23386903839987013e-14
  8 -7.45749342460412637e-10
  9 -1.45384486560739860e-09
 10  2.64024865272361740e-14
 11  1.81215382398013901e-09
 12 -1.01103511991222314e-09
 13  1.54941297111169498e-14
 14  2.92520138179644122e-09
 15 -8.95433544524286208e-10
 16  3.78770698383036342e-02
 17 -5.49038001678837456e-07
 18  5.16991479342930597e-10
 19  4.77830378805440385e-10
 20 -1.42666113960715748e-09
 21  6.03480130856146671e-02
 22 -8.74760184286338705e-07
 23  8.23701449133258861e-10
 24  7.61307613379246456e-10
 25  4.18413065699536677e-10
 26 -1.12249218659695284e-11
 27  2.43220634743044219e-15
 28 -2.38815686272618477e-10
 29 -2.20796012319434742e-10
 30  2.14075146204539804e-13
 31 -4.96981906368425075e-17
 32  4.90066520908114227e-11
 33  1.35389186334156145e-10
 34 -4.28370643721747376e-10
 35  2.78938327578860365e-10
 36 -2.48074083898372618e-09
 37  3.46596249079002328e-01
 38 -5.02400298949161562e-06
 39  2.99134656747808331e-09
 40  2.85987319385243743e-01
 41 -4.14546075706727581e-06
 42  2.58854511420399001e-09
 43  1.86049687757613519e-01
 44 -2.69683872556229640e-06
 45  1.58549594039776144e-09
 46 -9.00666471786126206e-11
 47 -6.13878218073891924e-03
 48  8.89832476518338930e-08
 49  2.05715192123711884e-11
 50  1.90115042762871810e-11
 51 -1.51672180663896164e-10
 52 -1.95661088984221063e-02
 53  2.83615850872239882e-07
 54  4.50056938268561218e-11