
    -----------------------------------------------------------------------
          Psi4: An Open-Source Ab Initio Electronic Structure Package
                               Psi4 1.3.2 release

                         Git: Rev {HEAD} ecbda83 


    R. M. Parrish, L. A. Burns, D. G. A. Smith, A. C. Simmonett,
    A. E. DePrince III, E. G. Hohenstein, U. Bozkaya, A. Yu. Sokolov,
    R. Di Remigio, R. M. Richard, J. F. Gonthier, A. M. James,
    H. R. McAlexander, A. Kumar, M. Saitow, X. Wang, B. P. Pritchard,
    P. Verma, H. F. Schaefer III, K. Patkowski, R. A. King, E. F. Valeev,
    F. A. Evangelista, J. M. Turney, T. D. Crawford, and C. D. Sherrill,
    J. Chem. Theory Comput. 13(7) pp 3185--3197 (2017).
    (doi: 10.1021/acs.jctc.7b00174)


                         Additional Contributions by
    P. Kraus, H. Kruse, M. H. Lechner, M. C. Schieber, R. A. Shaw,
    A. Alenaizan, R. Galvelis, Z. L. Glick, S. Lehtola, and J. P. Misiewicz

    -----------------------------------------------------------------------


    Psi4 started on: Wednesday, 05 February 2020 01:43PM

    Process ID: 900
    Host:       rh05314.villa-bosch.de
    PSIDATADIR: /media/miniconda3/envs/p4env/share/psi4
    Memory:     500.0 MiB
    Threads:    1
    
  ==> Input File <==

--------------------------------------------------------------------------

# PYTHONPATH must include directory above plugin directory.
#     Define either externally or here, then import plugin.
import psixas

molecule {
  N   -1.22651784160217      0.40019879988830      0.01704879881164
  H   -0.43885155782371      0.15100232225883      0.60864221052405
  H   -0.88355924463589      1.09440986479077     -0.64102616291803
  H   -1.44986135593823     -0.42747098693791     -0.52829484641767
symmetry c1
}

set {
  basis 6-31G*
}


set scf {
 reference uks
 scf_type DF
}

energy('B3LYP')
--------------------------------------------------------------------------

*** tstart() called on rh05314.villa-bosch.de
*** at Wed Feb  5 13:43:36 2020

   => Loading Basis Set <=

    Name: 6-31G*
    Role: ORBITAL
    Keyword: BASIS
    atoms 1   entry N          line   128 file /media/miniconda3/envs/p4env/share/psi4/basis/6-31gs.gbs 
    atoms 2-4 entry H          line    44 file /media/miniconda3/envs/p4env/share/psi4/basis/6-31gs.gbs 


         ---------------------------------------------------------
                                   SCF
               by Justin Turney, Rob Parrish, Andy Simmonett
                          and Daniel G. A. Smith
                              UKS Reference
                        1 Threads,    500 MiB Core
         ---------------------------------------------------------

  ==> Geometry <==

    Molecular point group: c1
    Full point group: C1

    Geometry (in Angstrom), charge = 0, multiplicity = 1:

       Center              X                  Y                   Z               Mass       
    ------------   -----------------  -----------------  -----------------  -----------------
         N           -0.053703241151     0.022649891445     0.036214781014    14.003074004430
         H            0.733963042628    -0.226546586185     0.627808192726     1.007825032230
         H            0.289255355816     0.716860956347    -0.621860180716     1.007825032230
         H           -0.277046755487    -0.805019895381    -0.509128864215     1.007825032230

  Running in c1 symmetry.

  Rotational constants: A =      9.87927  B =      9.87883  C =      6.31326 [cm^-1]
  Rotational constants: A = 296172.97164  B = 296159.82690  C = 189266.91797 [MHz]
  Nuclear repulsion =   11.911859002588059

  Charge       = 0
  Multiplicity = 1
  Electrons    = 10
  Nalpha       = 5
  Nbeta        = 5

  ==> Algorithm <==

  SCF Algorithm Type is DF.
  DIIS enabled.
  MOM disabled.
  Fractional occupation disabled.
  Guess Type is SAD.
  Energy threshold   = 1.00e-06
  Density threshold  = 1.00e-06
  Integral threshold = 0.00e+00

  ==> Primary Basis <==

  Basis Set: 6-31G*
    Blend: 6-31G*
    Number of shells: 12
    Number of basis function: 21
    Number of Cartesian functions: 21
    Spherical Harmonics?: false
    Max angular momentum: 2

  ==> DFT Potential <==

   => Composite Functional: B3LYP <= 

    B3LYP Hyb-GGA Exchange-Correlation Functional

    P. J. Stephens, F. J. Devlin, C. F. Chabalowski, and M. J. Frisch, J. Phys. Chem. 98, 11623 (1994)

    Deriv               =              1
    GGA                 =           TRUE
    Meta                =          FALSE

    Exchange Hybrid     =           TRUE
    MP2 Hybrid          =          FALSE

   => Exchange Functionals <=

    0.0800   Slater exchange
    0.7200         Becke 88

   => Exact (HF) Exchange <=

    0.2000               HF 

   => Correlation Functionals <=

    0.1900   Vosko, Wilk & Nusair (VWN5_RPA)
    0.8100   Lee, Yang & Parr

   => Molecular Quadrature <=

    Radial Scheme          =       TREUTLER
    Pruning Scheme         =           FLAT
    Nuclear Scheme         =       TREUTLER

    BS radius alpha        =              1
    Pruning alpha          =              1
    Radial Points          =             75
    Spherical Points       =            302
    Total Points           =          87801
    Total Blocks           =            717
    Max Points             =            256
    Max Functions          =             21

   => Loading Basis Set <=

    Name: (6-31G* AUX)
    Role: JKFIT
    Keyword: DF_BASIS_SCF
    atoms 1   entry N          line   171 file /media/miniconda3/envs/p4env/share/psi4/basis/cc-pvdz-jkfit.gbs 
    atoms 2-4 entry H          line    51 file /media/miniconda3/envs/p4env/share/psi4/basis/cc-pvdz-jkfit.gbs 

  ==> Pre-Iterations <==

   -------------------------------------------------------
    Irrep   Nso     Nmo     Nalpha   Nbeta   Ndocc  Nsocc
   -------------------------------------------------------
     A         21      21       0       0       0       0
   -------------------------------------------------------
    Total      21      21       5       5       5       0
   -------------------------------------------------------

  ==> Integral Setup <==

  DFHelper Memory: AOs need 0.001 GiB; user supplied 0.314 GiB. Using in-core AOs.

  ==> MemDFJK: Density-Fitted J/K Matrices <==

    J tasked:                   Yes
    K tasked:                   Yes
    wK tasked:                   No
    OpenMP threads:               1
    Memory [MiB]:               321
    Algorithm:                 Core
    Schwarz Cutoff:           1E-12
    Mask sparsity (%):       0.0000
    Fitting Condition:        1E-10

   => Auxiliary Basis Set <=

  Basis Set: (6-31G* AUX)
    Blend: CC-PVDZ-JKFIT
    Number of shells: 51
    Number of basis function: 156
    Number of Cartesian functions: 156
    Spherical Harmonics?: false
    Max angular momentum: 3

  Cached 100.0% of DFT collocation blocks in 0.052 [GiB].

  Minimum eigenvalue in the overlap matrix is 2.2336823494E-02.
  Using Symmetric Orthogonalization.

  SCF Guess: Superposition of Atomic Densities via on-the-fly atomic UHF.

  ==> Iterations <==

                           Total Energy        Delta E     RMS |[F,P]|

   @DF-UKS iter SAD:   -56.20531407252124   -5.62053e+01   0.00000e+00 
   @DF-UKS iter   1:   -56.34234880037535   -1.37035e-01   3.31934e-02 DIIS
   @DF-UKS iter   2:   -56.18578985993109    1.56559e-01   4.20444e-02 DIIS
   @DF-UKS iter   3:   -56.54767727946123   -3.61887e-01   1.02654e-03 DIIS
   @DF-UKS iter   4:   -56.54791357042806   -2.36291e-04   1.39986e-04 DIIS
   @DF-UKS iter   5:   -56.54791696771775   -3.39729e-06   2.50886e-05 DIIS
   @DF-UKS iter   6:   -56.54791708303625   -1.15318e-07   1.08222e-06 DIIS
   @DF-UKS iter   7:   -56.54791708331750   -2.81254e-10   4.90922e-08 DIIS
  Energy and wave function converged.


  ==> Post-Iterations <==

   @Spin Contamination Metric:   3.552713679E-15
   @S^2 Expected:                0.000000000E+00
   @S^2 Observed:                3.552713679E-15
   @S   Expected:                0.000000000E+00
   @S   Observed:                0.000000000E+00

    Orbital Energies [Eh]
    ---------------------

    Alpha Occupied:                                                       

       1A    -14.304384     2A     -0.845176     3A     -0.453836  
       4A     -0.453790     5A     -0.250442  

    Alpha Virtual:                                                        

       6A      0.079805     7A      0.169247     8A      0.169279  
       9A      0.684450    10A      0.684474    11A      0.721864  
      12A      0.918349    13A      0.918418    14A      0.921357  
      15A      1.148866    16A      1.675756    17A      1.675771  
      18A      1.953056    19A      2.406562    20A      2.406683  
      21A      3.671761  

    Beta Occupied:                                                        

       1A    -14.304384     2A     -0.845176     3A     -0.453836  
       4A     -0.453790     5A     -0.250442  

    Beta Virtual:                                                         

       6A      0.079805     7A      0.169247     8A      0.169279  
       9A      0.684450    10A      0.684474    11A      0.721864  
      12A      0.918349    13A      0.918418    14A      0.921357  
      15A      1.148866    16A      1.675756    17A      1.675771  
      18A      1.953056    19A      2.406562    20A      2.406683  
      21A      3.671761  

    Final Occupation by Irrep:
              A 
    DOCC [     5 ]
    SOCC [     0 ]

  @DF-UKS Final Energy:   -56.54791708331750

   => Energetics <=

    Nuclear Repulsion Energy =             11.9118590025880593
    One-Electron Energy =                 -99.6324618523962613
    Two-Electron Energy =                  37.6733029943699052
    DFT Exchange-Correlation Energy =      -6.5006172278792098
    Empirical Dispersion Energy =           0.0000000000000000
    VV10 Nonlocal Energy =                  0.0000000000000000
    Total Energy =                        -56.5479170833175075

  UHF NO Occupations:
  HONO-2 :    3  A 2.0000000
  HONO-1 :    4  A 2.0000000
  HONO-0 :    5  A 2.0000000
  LUNO+0 :    6  A 0.0000000
  LUNO+1 :    7  A 0.0000000
  LUNO+2 :    8  A 0.0000000
  LUNO+3 :    9  A 0.0000000


Computation Completed


Properties will be evaluated at   0.000000,   0.000000,   0.000000 [a0]

Properties computed using the SCF density matrix

  Nuclear Dipole Moment: [e a0]
     X:     0.6997      Y:    -0.2951      Z:    -0.4718

  Electronic Dipole Moment: [e a0]
     X:    -0.1214      Y:     0.0511      Z:     0.0818

  Dipole Moment: [e a0]
     X:     0.5782      Y:    -0.2440      Z:    -0.3900     Total:     0.7389

  Dipole Moment: [D]
     X:     1.4697      Y:    -0.6202      Z:    -0.9912     Total:     1.8781


*** tstop() called on rh05314.villa-bosch.de at Wed Feb  5 13:43:37 2020
Module time:
	user time   =       1.19 seconds =       0.02 minutes
	system time =       0.05 seconds =       0.00 minutes
	total time  =          1 seconds =       0.02 minutes
Total time:
	user time   =       1.19 seconds =       0.02 minutes
	system time =       0.05 seconds =       0.00 minutes
	total time  =          1 seconds =       0.02 minutes

    Psi4 stopped on: Wednesday, 05 February 2020 01:43PM
    Psi4 wall time for execution: 0:00:01.41

*** Psi4 exiting successfully. Buy a developer a beer!
