
    -----------------------------------------------------------------------
          Psi4: An Open-Source Ab Initio Electronic Structure Package
                               Psi4 1.3.2 release

                         Git: Rev {HEAD} ecbda83 


    R. M. Parrish, L. A. Burns, D. G. A. Smith, A. C. Simmonett,
    A. E. DePrince III, E. G. Hohenstein, U. Bozkaya, A. Yu. Sokolov,
    R. Di Remigio, R. M. Richard, J. F. Gonthier, A. M. James,
    H. R. McAlexander, A. Kumar, M. Saitow, X. Wang, B. P. Pritchard,
    P. Verma, H. F. Schaefer III, K. Patkowski, R. A. King, E. F. Valeev,
    F. A. Evangelista, J. M. Turney, T. D. Crawford, and C. D. Sherrill,
    J. Chem. Theory Comput. 13(7) pp 3185--3197 (2017).
    (doi: 10.1021/acs.jctc.7b00174)


                         Additional Contributions by
    P. Kraus, H. Kruse, M. H. Lechner, M. C. Schieber, R. A. Shaw,
    A. Alenaizan, R. Galvelis, Z. L. Glick, S. Lehtola, and J. P. Misiewicz

    -----------------------------------------------------------------------


    Psi4 started on: Wednesday, 05 February 2020 01:52PM

    Process ID: 1735
    Host:       rh05314.villa-bosch.de
    PSIDATADIR: /media/miniconda3/envs/p4env/share/psi4
    Memory:     500.0 MiB
    Threads:    1
    
  ==> Input File <==

--------------------------------------------------------------------------

# PYTHONPATH must include directory above plugin directory.
#     Define either externally or here, then import plugin.
import psixas

molecule {
  O   0.27681793323501      0.00000014791107      0.00000000000000
  H   0.86159097690242      0.76505117501585      0.00000000000000
  H   0.86159108986257     -0.76505132292693      0.00000000000000
symmetry c1
}

set {
  basis def2-TZVP
}


set scf {
 reference uks
}

set psixas {
  print 1
  prefix WATER
  MODE GS
}
energy('psixas',functional='wPBE')
--------------------------------------------------------------------------

                    ___     ___      ___    __  __     ___      ___   
                   | _ \   / __|    |_ _|   \ \/ /    /   \    / __|  
                   |  _/   \__ \     | |     >  <     | - |    \__ \  
                  _|_|_    |___/    |___|   /_/\_\    |_|_|    |___/  
                _| """ | _|"""""| _|"""""| _|"""""| _|"""""| _|"""""| 
                "`-0-0-' "`-0-0-' "`-0-0-' "`-0-0-' "`-0-0-' "`-0-0-' 
                
                         An X-Ray Absorption Plugin for PSI4
    

=================================
=Entering Ground State Kohn-Sham=
=================================


Basis Set:
==========

   => Loading Basis Set <=

    Name: DEF2-TZVP
    Role: ORBITAL
    Keyword: BASIS
    atoms 1   entry O          line   189 file /media/miniconda3/envs/p4env/share/psi4/basis/def2-tzvp.gbs 
    atoms 2-3 entry H          line    15 file /media/miniconda3/envs/p4env/share/psi4/basis/def2-tzvp.gbs 

   => Loading Basis Set <=

    Name: (DEF2-TZVP AUX)
    Role: JKFIT
    Keyword: DF_BASIS_SCF
    atoms 1   entry O          line   323 file /media/miniconda3/envs/p4env/share/psi4/basis/def2-tzvp-jkfit.gbs 
    atoms 2-3 entry H          line    23 file /media/miniconda3/envs/p4env/share/psi4/basis/def2-tzvp-jkfit.gbs 


Restarting Calculation 


Molecule:
=========

    Molecular point group: c1
    Full point group: Cs

    Geometry (in Angstrom), charge = 0, multiplicity = 1:

       Center              X                  Y                   Z               Mass       
    ------------   -----------------  -----------------  -----------------  -----------------
         O           -0.065444807405     0.000000024830     0.000000000000    15.994914619570
         H            0.519328236262     0.765051051935     0.000000000000     1.007825032230
         H            0.519328349222    -0.765051446008     0.000000000000     1.007825032230



XC & JK-Info:
=============

   => Composite Functional: WPBE <= 

    PBE SR-XC Functional (HJS Model)

    Henderson et. al., J. Chem. Phys., 128, 194105, 2008
    Weintraub, Henderson, and Scuseria, J. Chem. Theory. Comput., 5, 754, 2009


    Deriv               =              1
    GGA                 =           TRUE
    Meta                =          FALSE

    Exchange Hybrid     =          FALSE
    MP2 Hybrid          =          FALSE

   => Exchange Functionals <=

    1.0000   XC_GGA_X_HJS_PBE [omega = 0.4000]

   => Exact (HF) Exchange <=

    1.0000            HF,LR [omega = 0.4000]

   => Correlation Functionals <=

    1.0000     XC_GGA_C_PBE



  ==> DiskDFJK: Density-Fitted J/K Matrices <==

    J tasked:                  Yes
    K tasked:                   No
    wK tasked:                 Yes
    Omega:               4.000E-01
    OpenMP threads:              1
    Integrals threads:           1
    Memory [MiB]:              300
    Algorithm:                Core
    Integral Cache:           NONE
    Schwarz Cutoff:          1E-12
    Fitting Condition:       1E-10

   => Auxiliary Basis Set <=

  Basis Set: (DEF2-TZVP AUX)
    Blend: DEF2-TZVP-JKFIT
    Number of shells: 37
    Number of basis function: 113
    Number of Cartesian functions: 133
    Spherical Harmonics?: true
    Max angular momentum: 4



Starting SCF:
=============

   E_CONV: 1.00E-08
   D_CONV: 1.00E-06
     DAMP:   0.8000
 DIIS_EPS: 1.00E-01
  MAXITER:      100
 DIIS_LEN:        6
DIIS_MODE: ADIIS+CDIIS

# IT      Escf         dEscf      Derror      DIIS-E        MIX      Time  
================================================================================
   1   -76.41265586  -7.641E+01   4.187E-02   7.677E-02    DAMP       0.13  1 
   2   -76.41312991  -4.741E-04   1.057E-02   1.291E-02 ADIIS+CDIIS   0.13  2 
   3   -76.41314627  -1.636E-05   3.639E-03   1.111E-02 ADIIS+CDIIS   0.14  3 
   4   -76.41315523  -8.957E-06   1.602E-03   2.666E-03 ADIIS+CDIIS   0.14  4 
   5   -76.41315606  -8.300E-07   4.475E-04   4.916E-04 ADIIS+CDIIS   0.14  5 
   6   -76.41315610  -4.442E-08   1.141E-04   5.936E-05 ADIIS+CDIIS   0.15  6 
   7   -76.41315610  -1.639E-09   1.387E-05   9.779E-06 ADIIS+CDIIS   0.15  6 
   8   -76.41315610  -2.183E-11   1.363E-06   1.333E-06 ADIIS+CDIIS   0.15  6 
   9   -76.41315610  -3.126E-13   2.376E-07   1.633E-07 ADIIS+CDIIS   0.15  6 


FINAL GS SCF ENERGY: -76.41315610 [Ha] 


Moldenfile written
Canoncical Orbitals written


    Psi4 stopped on: Wednesday, 05 February 2020 01:52PM
    Psi4 wall time for execution: 0:00:01.75

*** Psi4 exiting successfully. Buy a developer a beer!
