[Molden Format]
[Atoms] (AU)
O    1    8        -0.123672762329       0.000000046922       0.000000000000
H    2    1         0.981388135752       1.445736960150       0.000000000000
H    3    1         0.981388349216      -1.445737704840       0.000000000000
[GTO]
  1 0
 s    6  1.00
    27032.3826310000         0.0002172630
     4052.3871392000         0.0016838662
      922.3272271000         0.0087395616
      261.2407098900         0.0352399688
       85.3546413510         0.1115351912
       31.0350352450         0.2558895396
 s    2  1.00
       12.2608607280         0.3976873090
        4.9987076005         0.2462784943
 s    1  1.00
        1.1703108158         1.0000000000
 s    1  1.00
        0.4647474099         1.0000000000
 s    1  1.00
        0.1850453636         1.0000000000
 p    4  1.00
       63.2749548010         0.0060685103
       14.6270493790         0.0419125758
        4.4501223456         0.1615384109
        1.5275799647         0.3570695131
 p    1  1.00
        0.5293511794         1.0000000000
 p    1  1.00
        0.1747842127         1.0000000000
 d    1  1.00
        2.3140000000         1.0000000000
 d    1  1.00
        0.6450000000         1.0000000000
 f    1  1.00
        1.4280000000         1.0000000000

  2 0
 s    3  1.00
       34.0613410000         0.0060251978
        5.1235746000         0.0450210940
        1.1646626000         0.2018972600
 s    1  1.00
        0.3272304100         1.0000000000
 s    1  1.00
        0.1030724100         1.0000000000
 p    1  1.00
        0.8000000000         1.0000000000

  3 0
 s    3  1.00
       34.0613410000         0.0060251978
        5.1235746000         0.0450210940
        1.1646626000         0.2018972600
 s    1  1.00
        0.3272304100         1.0000000000
 s    1  1.00
        0.1030724100         1.0000000000
 p    1  1.00
        0.8000000000         1.0000000000

[5D]
[9G]

[MO]
 Sym= A
 Ene= -1.89625738815201679e+01
 Spin= Alpha
 Occup=  1.00000000000000000e+00
  1  4.35372873839843300e-01
  2  6.38885835525399570e-01
  3  3.63605264955407168e-02
  4 -2.44584842583649605e-02
  5  1.00825528277164594e-02
  6  1.81835976280190440e-03
  7 -1.51126011779645597e-10
  8  1.06647472796371533e-16
  9 -3.19160558503446719e-03
 10  1.09494213468080635e-09
 11 -1.55718581649823651e-16
 12  1.19221799577993830e-03
 13  7.02531986673467655e-10
 14  5.21647801094711184e-19
 15 -2.39122146647363800e-04
 16  5.17312562043060950e-17
 17  4.35614265385813689e-17
 18 -9.70052184559813560e-05
 19 -6.42759522298027805e-11
 20  9.93674992079548233e-04
 21 -9.41543236928880329e-17
 22  2.75105193392180841e-17
 23  4.08658057961302698e-04
 24  8.30085325978407151e-10
 25  1.10496717723922961e-17
 26  2.06932331842012206e-04
 27 -1.86727229141430495e-10
 28  9.94854188501865410e-19
 29 -1.15016735692033839e-16
 30  3.92340724951490522e-04
 31 -3.95905146931395439e-11
 32  9.37360392897087949e-04
 33  1.76960215639333806e-03
 34 -2.07044922624511447e-03
 35 -7.01042071399437389e-04
 36 -9.85209826547940679e-04
 37  6.85827496753359957e-18
 38  9.37360164537000382e-04
 39  1.76960320591245095e-03
 40 -2.07044715615921880e-03
 41 -7.01043389568337810e-04
 42  9.85211719096237143e-04
 43  2.86509126499525387e-16
 Sym= A
 Ene= -1.14210347573590987e+00
 Spin= Alpha
 Occup=  1.00000000000000000e+00
  1  9.69625297260680030e-02
  2  2.26514863274453582e-01
  3 -3.26293527412046147e-01
  4 -4.30323358536953304e-01
  5 -1.64442489559010641e-01
  6 -8.53113436613187615e-02
  7 -6.61532285740192631e-08
  8 -4.67981651210950855e-16
  9 -7.24074604096035940e-02
 10 -2.41243610320012033e-08
 11 -2.27518384512496821e-16
 12 -1.05825971144133096e-02
 13 -1.77299073495161837e-09
 14 -2.59108393731480728e-16
 15  4.50996938447748540e-03
 16  1.27353667651726567e-16
 17 -1.33300059660570612e-16
 18  1.12022427276557723e-03
 19 -6.54204679114657090e-09
 20  1.17442474540930802e-02
 21 -1.76566599718426458e-17
 22  1.47648073624148429e-16
 23  1.29035603027223621e-03
 24  2.18172750956425526e-09
 25 -8.35242057910564841e-17
 26  2.49483127618410150e-03
 27  1.50249029145428019e-09
 28 -5.30583843023179254e-17
 29 -7.29791302813525306e-17
 30  3.58055307223710583e-03
 31 -1.75233560693110477e-09
 32 -9.40846482193574696e-02
 33 -7.25564998809866690e-02
 34 -1.03307440674960029e-02
 35  8.07229198273180099e-03
 36  1.47542646361225899e-02
 37 -2.13572714728472984e-16
 38 -9.40845360351607735e-02
 39 -7.25564387104200570e-02
 40 -1.03307362495926348e-02
 41  8.07227399197025207e-03
 42 -1.47542492323800567e-02
 43  6.76698447411193702e-17
 Sym= A
 Ene= -6.57800434624097985e-01
 Spin= Alpha
 Occup=  1.00000000000000000e+00
  1  1.94836995483888642e-08
  2  4.55578900137324701e-08
  3 -5.76053790761786993e-08
  4 -1.44611082786380945e-07
  5 -1.34877975106080011e-07
  6  1.10077163466438422e-07
  7  3.84972184592475064e-01
  8  1.82961117152424606e-15
  9  5.61613064416869854e-08
 10  2.99826745780407244e-01
 11 -2.26997082014981212e-15
 12  2.86038272264355943e-08
 13  1.20334253792073728e-01
 14  5.04322523233998369e-15
 15 -3.33889480311709377e-09
 16 -9.83236157267312095e-17
 17 -8.68965098778321603e-17
 18 -9.58576171195669994e-11
 19  1.16257945713621295e-02
 20  3.33946824503541304e-09
 21  9.36814952792794553e-17
 22 -8.98267294073997938e-17
 23  7.77125108849717301e-09
 24  2.59320690597169487e-02
 25 -4.77012303719723076e-17
 26 -1.19935861569556358e-09
 27 -4.95103108705998232e-03
 28 -7.43069924287988403e-18
 29 -7.46034548093190821e-17
 30 -1.65335236256689824e-09
 31 -5.37579306737174774e-04
 32  1.47439853413237371e-01
 33  1.86620408664845444e-01
 34  6.04647609884029838e-02
 35 -1.80398826818883688e-02
 36 -9.59064101832314726e-03
 37  3.71567963446551008e-16
 38 -1.47439818884707113e-01
 39 -1.86620410768861350e-01
 40 -6.04647895996086801e-02
 41  1.80398754118625097e-02
 42 -9.59064090936039698e-03
 43  3.74502661321626288e-16
 Sym= A
 Ene= -5.11305336516596043e-01
 Spin= Alpha
 Occup=  1.00000000000000000e+00
  1 -3.68334438007861600e-02
  2 -8.76775124193849842e-02
  3  1.35409945552832922e-01
  4  1.98288546567687962e-01
  5  2.15966210383590929e-01
  6 -4.17269686358345882e-01
  7  7.76620180486406651e-08
  8  1.96171451907516004e-15
  9 -3.27129894072891336e-01
 10  8.14673841585589967e-08
 11  1.89566099591331588e-15
 12 -2.36986197048511621e-01
 13  4.15916800617609012e-08
 14  9.97584561161994380e-16
 15  4.19355303118534254e-03
 16 -1.37628514548476332e-17
 17  1.10952137074142727e-16
 18 -2.92171897437337388e-03
 19 -1.35686106714738020e-09
 20  1.29636659517614571e-02
 21 -7.01983530506582290e-17
 22 -2.03089339884365005e-16
 23 -2.45080895680123596e-02
 24  8.18259735648579521e-09
 25  1.04081815473213400e-16
 26  3.47293555590643017e-03
 27 -8.15496921045674330e-10
 28 -6.91302109381320626e-17
 29  4.26653622100326548e-17
 30  1.36036124439109355e-03
 31 -1.87790712457413691e-09
 32 -8.52661368363244743e-02
 33 -1.20853236299142713e-01
 34 -3.55571144779666740e-02
 35 -9.50316762722913828e-03
 36  1.77533529295731754e-02
 37 -4.20280383230405082e-17
 38 -8.52661658916041010e-02
 39 -1.20853313514166200e-01
 40 -3.55571844409643886e-02
 41 -9.50316410598363130e-03
 42 -1.77533491844516916e-02
 43  1.09938454940176943e-16
 Sym= A
 Ene= -4.37740425682028367e-01
 Spin= Alpha
 Occup=  1.00000000000000000e+00
  1 -1.95213503615101956e-16
  2 -5.35053809117133293e-16
  3  4.71763526152484421e-16
  4  2.97944875357919934e-15
  5 -1.13675172946748661e-15
  6 -1.96618139064426081e-15
  7 -3.27435412317334391e-17
  8 -4.74366971347657596e-01
  9 -2.69703285526287985e-16
 10  2.23147221768154879e-15
 11 -3.89846075598999475e-01
 12 -1.52599449789645699e-15
 13  1.36159935969810017e-15
 14 -3.32529892361617008e-01
 15 -3.70839291142128072e-17
 16 -4.35252913246207337e-03
 17 -2.45594089483801990e-09
 18 -8.75203688336262920e-17
 19  1.48601456833072774e-17
 20 -9.06364438017546189e-16
 21 -2.78932915431316791e-02
 22 -1.25201811525393055e-09
 23 -3.16800029853051962e-16
 24  8.21418573551972153e-16
 25  5.36119366029286747e-03
 26  3.16632467462124499e-16
 27 -1.42498275181988153e-16
 28  1.52726340983719419e-03
 29 -1.68480971192320655e-09
 30 -9.56776279401161283e-17
 31  4.01687945539673723e-17
 32  3.25256527131259659e-16
 33 -2.39323071607098272e-15
 34  3.26484045537084700e-15
 35  6.82399813125529660e-16
 36  9.66857066609660257e-16
 37 -2.59936489107681634e-02
 38 -3.95092298160720368e-16
 39 -2.01322512168507781e-16
 40 -1.35915362673554995e-15
 41 -5.35870871562766694e-16
 42  4.43324932493516030e-16
 43 -2.59936389963638277e-02
 Sym= A
 Ene=  1.08823999720283782e-01
 Spin= Alpha
 Occup=  0.00000000000000000e+00
  1  3.25251955103327967e-02
  2  8.30027551834269239e-02
  3 -2.10102749918066406e-01
  4  1.45818525694195400e-01
  5 -1.28914157012270381e+00
  6 -1.47013088783816831e-01
  7  2.03415678630789350e-07
  8 -3.79923634158160434e-16
  9 -8.01946814774242706e-02
 10  1.93205517234099113e-07
 11  7.81240131962143616e-16
 12 -3.44337897882088295e-01
 13  3.89984562958279906e-07
 14 -7.08656323105830022e-16
 15 -4.09887435883589423e-04
 16 -7.54025854974460657e-18
 17 -1.08322492297802080e-17
 18 -1.91874756094784801e-03
 19 -3.26367721237759690e-09
 20 -4.93291309405879345e-03
 21  1.83758732095923882e-16
 22 -8.00894899923653464e-17
 23 -1.18012281284134851e-02
 24  1.86146613294456755e-08
 25 -1.53004994277545212e-17
 26  6.24780347177964889e-04
 27 -2.36139234934648407e-09
 28 -3.51553382979346690e-17
 29  2.50901572722580514e-17
 30 -3.54970897278165205e-04
 31 -1.72571469195878834e-09
 32  3.64138370360525612e-02
 33  3.34280008205164181e-02
 34  9.99850378791541705e-01
 35  2.09094953690981099e-02
 36  3.04223873946431189e-02
 37 -2.83191392395539304e-16
 38  3.64139722568261395e-02
 39  3.34282242152038195e-02
 40  9.99851391591108696e-01
 41  2.09094867581393618e-02
 42 -3.04223608324425410e-02
 43  3.02421330811914452e-17
 Sym= A
 Ene=  1.79249176242237379e-01
 Spin= Alpha
 Occup=  0.00000000000000000e+00
  1  1.39826044046738929e-08
  2  3.94120371608650407e-08
  3 -1.63954734958510400e-07
  4  4.12947221464820374e-07
  5 -1.18616875678928809e-06
  6 -2.98699567814766483e-08
  7 -2.33385740448322443e-01
  8  4.69926992335940573e-16
  9  9.97034083897682198e-08
 10 -4.90810736659314656e-02
 11  1.01410998338629058e-15
 12 -1.83999843310537227e-07
 13 -7.18641861708788521e-01
 14 -5.12047869590842584e-17
 15  2.00378053296597516e-09
 16  8.39382087788440864e-17
 17 -5.31652744408024473e-17
 18  1.94792739010894017e-09
 19  2.78604747839754970e-04
 20 -2.24424076491929845e-08
 21 -2.44509718788459685e-16
 22  1.75525149687278823e-16
 23 -1.10424480219852399e-10
 24  3.48659820000479653e-02
 25 -2.79780912158684753e-18
 26 -1.39251487796426385e-09
 27 -1.00073694767734904e-03
 28  2.29612521438440622e-17
 29  3.93316940474653338e-17
 30 -1.57484213053886856e-09
 31  3.42543605216982230e-03
 32  3.02571055791526905e-02
 33 -7.48228840856888650e-02
 34  1.74374268449091874e+00
 35  3.63167812021808339e-02
 36  4.08617833456988155e-02
 37 -5.92004502810064493e-18
 38 -3.02572000393999466e-02
 39  7.48225246639798169e-02
 40 -1.74374113474205616e+00
 41 -3.63166899642146587e-02
 42  4.08617006235829083e-02
 43  1.16841715803695068e-16
 Sym= A
 Ene=  4.67403979127015701e-01
 Spin= Alpha
 Occup=  0.00000000000000000e+00
  1  5.59457861007535580e-08
  2  1.23372636908157338e-07
  3 -4.91570179316346544e-08
  4 -8.94696960562010564e-07
  5  6.72281448946881132e-07
  6 -2.92839673750810480e-07
  7  1.34310854956769393e-01
  8 -9.46292358065701278e-19
  9 -3.93313946229412190e-07
 10  3.94130566246242098e-01
 11 -9.50055007902111997e-16
 12 -4.10333017644621383e-07
 13  1.20617342139831196e+00
 14  8.68468935455891872e-16
 15 -2.32233863198953328e-08
 16 -8.31095389843908810e-17
 17  1.83659480803071204e-16
 18 -2.17757164077358773e-08
 19 -3.30295345234406790e-02
 20 -6.09546329282982782e-09
 21  1.47946650173897217e-16
 22 -3.79582881424589138e-16
 23 -1.60617757781630206e-08
 24  1.36608788264716036e-01
 25  1.30101533442344571e-16
 26  3.24242109697617551e-09
 27 -1.37849239066189493e-02
 28 -1.64229412179034305e-16
 29  1.57404522457819832e-16
 30  1.04719365731966754e-08
 31  3.95709565632290650e-03
 32 -1.22484840905795672e-01
 33 -1.48699293378457398e+00
 34  4.93102651012616966e-01
 35  4.78061578341471491e-02
 36  9.62283745508334259e-02
 37 -2.05843491741669659e-16
 38  1.22485179594169089e-01
 39  1.48699689782743749e+00
 40 -4.93105583803074177e-01
 41 -4.78061965399715835e-02
 42  9.62283592961493128e-02
 43 -5.60064444454763069e-16
 Sym= A
 Ene=  5.17147934565192702e-01
 Spin= Alpha
 Occup=  0.00000000000000000e+00
  1 -3.85090223299640044e-02
  2 -8.37981896475763904e-02
  3 -3.00207644946004527e-02
  4  9.41460199286958233e-01
  5  5.65872163683249219e-01
  6 -1.32155719375758474e-02
  7  3.77412082099757093e-08
  8  2.07032155130810552e-15
  9  6.92052095927115779e-02
 10  6.87533051568495817e-07
 11  4.88000608860044647e-15
 12  1.32569997127009875e+00
 13  2.91082468590154271e-06
 14 -8.93674148728282923e-15
 15  1.93954298170856444e-02
 16 -4.56245939318266834e-17
 17  5.32832013799990108e-17
 18  5.72456878265999863e-03
 19 -5.81953598982816811e-08
 20 -7.45092937643091757e-02
 21 -6.70103965811850638e-16
 22  3.52347654739256054e-17
 23  2.53898567119894138e-04
 24  3.79706050295302071e-07
 25  6.86579195560344643e-17
 26 -8.17881659956567857e-03
 27 -2.90721829676468711e-08
 28 -2.13153885879863730e-18
 29  8.03958377321937329e-18
 30 -1.63485621738748421e-02
 31  1.85365813726691201e-08
 32 -9.26233865712265125e-02
 33 -1.57371360590925069e+00
 34  4.45507238291113550e-01
 35  7.07889336621844445e-02
 36  7.36529858964217465e-02
 37  9.42788746844658497e-17
 38 -9.26230319953890574e-02
 39 -1.57370824164514689e+00
 40  4.45507879071379731e-01
 41  7.07886012027638678e-02
 42 -7.36524665592721006e-02
 43  1.74958880919770737e-16
 Sym= A
 Ene=  5.46932658103603475e-01
 Spin= Alpha
 Occup=  0.00000000000000000e+00
  1 -4.36225288880252868e-17
  2  1.56544827548768168e-18
  3 -6.38430865880342092e-16
  4  8.12004598930430378e-16
  5 -4.79391017198018425e-15
  6 -1.70083787147677538e-14
  7 -1.97840868177369180e-15
  8 -3.10969166090390159e-01
  9 -3.73491510509467338e-14
 10 -2.15417345445507246e-15
 11 -7.05973161274594641e-01
 12  5.05656602003858963e-14
 13  2.05419073469859224e-15
 14  1.23854042116821472e+00
 15 -6.56275670536248442e-17
 16 -6.86661975689671807e-03
 17 -2.31235910226713847e-09
 18 -4.16881387220940088e-16
 19 -6.90119654719205674e-16
 20  4.01100496213880607e-17
 21  7.83126037747166638e-03
 22 -2.78559790475200097e-09
 23  1.26491526715861568e-16
 24 -4.47327139088622449e-17
 25  1.70876710796840584e-03
 26  3.15368349891992898e-16
 27  5.30862117740331233e-16
 28  6.43188710990768480e-04
 29  3.08156534512308756e-10
 30  2.60244732545503322e-16
 31 -5.02720530438233252e-16
 32  2.96405943828798368e-15
 33  2.13849491937839321e-14
 34 -2.18047173082467885e-14
 35 -1.13336340162309563e-15
 36 -6.96478422060095480e-16
 37 -5.64015442774905458e-03
 38  2.19092934151363988e-15
 39  2.23468368517257822e-14
 40 -1.87374835879084657e-14
 41 -1.36439717116083521e-15
 42 -3.11941003707560973e-16
 43 -5.64012055661887186e-03
 Sym= A
 Ene=  5.53449363044885678e-01
 Spin= Alpha
 Occup=  0.00000000000000000e+00
  1  5.02508774138307832e-03
  2  1.19468953642570472e-02
  3  7.12876676299656429e-03
  4 -1.88162836657277149e-01
  5  1.75900953878782920e-02
  6 -3.40387226967204304e-01
  7  1.64702563779295807e-08
  8  1.51949184085876289e-14
  9 -7.74517035388934794e-01
 10 -3.66691717733003775e-07
 11  3.41787954937813132e-14
 12  9.15580167090577102e-01
 13 -2.14672042470556669e-06
 14 -5.96019917275757856e-14
 15 -1.94670650718840031e-03
 16  2.99139724099329121e-16
 17  1.47361814578800969e-16
 18 -9.77000249416033924e-03
 19  4.03576723168588967e-08
 20 -1.45065188148718577e-04
 21  1.26119311638555107e-16
 22 -1.97347572067804641e-16
 23 -8.47027061510095933e-04
 24 -2.63961014177148856e-07
 25 -1.29071159769444882e-16
 26  3.59899785789489319e-03
 27  2.63327050703467416e-08
 28  8.86200675633119010e-18
 29 -2.53546915526955632e-17
 30  6.59178088583662562e-03
 31 -1.33078667821950727e-08
 32  7.17783175676870999e-02
 33  6.13245721451429526e-01
 34 -5.18679792871167722e-01
 35 -2.51367112988955879e-02
 36 -2.04247988324334764e-03
 37  2.07832393481035734e-16
 38  7.17781027442952330e-02
 39  6.13242112103160042e-01
 40 -5.18680177794934805e-01
 41 -2.51364453715969202e-02
 42  2.04210412629196592e-03
 43 -2.48110644297481138e-16
 Sym= A
 Ene=  6.80970171483699538e-01
 Spin= Alpha
 Occup=  0.00000000000000000e+00
  1  2.71227070484633408e-08
  2  5.42488118618258227e-08
  3  1.53024005567467744e-08
  4 -1.26053052040637465e-06
  5  4.34939501183874391e-06
  6  6.67215142148085521e-08
  7  3.55400337842130654e-01
  8 -4.32504691876634491e-16
  9  4.79538533360472278e-07
 10  7.69024293521093694e-01
 11 -2.26649309303785928e-15
 12  1.35985560236364457e-06
 13 -2.03380241772359316e+00
 14  1.27820279951334129e-15
 15  2.65766420939515433e-08
 16 -4.26892925720281109e-17
 17  7.07064044986677496e-18
 18  1.16499995008840261e-08
 19  1.09343472371180184e-02
 20 -1.15348201907246253e-07
 21 -6.77902312524077720e-16
 22  3.11109018412171076e-16
 23 -2.30495393420257895e-08
 24 -5.67336417633457768e-02
 25 -1.43489566028545439e-16
 26 -1.77899444728718008e-08
 27  6.96429898938242240e-04
 28  3.07558524283662363e-16
 29 -9.34564504354960169e-17
 30 -3.71089120114531329e-08
 31 -1.82288200244680215e-03
 32 -5.82205261815152766e-02
 33 -8.22603359960668717e-02
 34  1.54321348855313412e+00
 35 -2.90269796272598947e-02
 36 -2.78995167876399941e-02
 37  1.15731053067980485e-16
 38  5.82204818969501298e-02
 39  8.22562146602497379e-02
 40 -1.54321410971407125e+00
 41  2.90272689291034905e-02
 42 -2.78998327518150957e-02
 43  1.44389904988483324e-15
 Sym= A
 Ene=  7.06504508969530987e-01
 Spin= Alpha
 Occup=  0.00000000000000000e+00
  1 -5.24179079142226695e-02
  2 -1.07695973119945179e-01
  3 -1.02546690108798355e-01
  4  2.25615366449586929e+00
  5 -4.81253053006765352e+00
  6  6.26084441628412119e-02
  7  3.33350744902713561e-07
  8  8.22483820569225767e-16
  9 -2.87912845313493711e-02
 10  5.86338154696615588e-07
 11  2.58362096905213263e-16
 12 -1.22039159640861206e+00
 13 -2.07226073072682892e-06
 14 -1.55994661268202281e-15
 15 -1.69944189993282285e-02
 16  2.56611549086612086e-16
 17  4.05964843430407312e-17
 18 -6.07080410696449971e-03
 19  8.14975310669449932e-09
 20  5.34580959533866445e-02
 21 -1.27172219787971719e-18
 22  1.21396340141307341e-15
 23  9.91284114259346387e-04
 24 -7.92506700158295040e-08
 25  6.52621177875852214e-17
 26  5.23832896739276094e-03
 27 -4.92097893720416089e-09
 28 -4.44457930317581811e-17
 29 -5.46133599906234918e-18
 30  1.16294196558801195e-02
 31 -2.64599353421991369e-09
 32 -1.57498052406438611e-02
 33  9.48791096912280585e-01
 34  9.17176007862427478e-01
 35 -6.77874725889352769e-02
 36 -5.79628497102900181e-02
 37  7.01057445745814997e-16
 38 -1.57496956932858083e-02
 39  9.48791055652969839e-01
 40  9.17171808188671944e-01
 41 -6.77874084180089681e-02
 42  5.79627864316890340e-02
 43  8.77676680173049854e-16
 Sym= A
 Ene=  1.28009184398084153e+00
 Spin= Alpha
 Occup=  0.00000000000000000e+00
  1  3.74787113745660627e-03
  2  9.66947355013513671e-03
  3 -3.80046451125843898e-02
  4 -7.79092755001030285e-02
  5  9.26459489249314538e-01
  6  8.52152398542236761e-02
  7 -1.67591322918030427e-08
  8  1.29134276611992205e-15
  9  1.57055210092495179e-01
 10  1.67923432748299471e-07
 11  7.25137241977796454e-16
 12  5.70476674606812506e-01
 13  2.80838143418555460e-07
 14  2.08184116716746763e-15
 15 -5.16428492000008642e-04
 16  5.38537420194546686e-17
 17 -6.45748766404452966e-16
 18 -1.15336139072464931e-02
 19  7.53841756109232984e-10
 20  1.35443145166970091e-01
 21 -7.23893228727814653e-15
 22 -4.30898669299750968e-14
 23 -5.10193386714810182e-01
 24  2.46445102369388005e-07
 25 -2.96049722120788301e-17
 26 -3.50643266768994053e-03
 27 -3.24522511379571005e-09
 28 -1.63028202752123464e-17
 29  8.56211180636766006e-16
 30 -8.80540560694847117e-03
 31  3.18655148213193029e-08
 32  4.00214596178003756e-02
 33 -5.96526970481939145e-01
 34 -4.85120267140366976e-02
 35 -3.03948976425798267e-01
 36  3.00311928106348880e-01
 37 -3.78457068334563365e-14
 38  4.00214572788487946e-02
 39 -5.96526060938201930e-01
 40 -4.85118560947270655e-02
 41 -3.03949333594986881e-01
 42 -3.00311803788954390e-01
 43  2.99893533282470957e-14
 Sym= A
 Ene=  1.29998647289560942e+00
 Spin= Alpha
 Occup=  0.00000000000000000e+00
  1  2.33426045490682035e-16
  2  4.79280710702377927e-16
  3  2.00560821711269872e-16
  4 -1.39805560341956104e-14
  5  8.12475159113408190e-14
  6  5.95173861632656527e-15
  7  8.01660856333653806e-16
  8  3.40927626650195196e-08
  9  1.23039611887077277e-14
 10 -3.88419515213381232e-15
 11 -1.43751277298258115e-07
 12  4.64489475219144207e-14
 13 -2.68018298643632279e-15
 14  2.03954028413321714e-07
 15 -4.54595236329399221e-17
 16  3.49564379691339344e-09
 17  8.38458652487040698e-03
 18 -1.11094982693849341e-15
 19  1.36128299449069346e-16
 20  1.27512904741028487e-14
 21 -2.83384520914370503e-07
 22  5.43248615582755501e-01
 23 -4.12208781742428139e-14
 24 -3.33299636905958450e-15
 25  1.48169321589630068e-08
 26 -1.61896483150420717e-16
 27  3.67438925071441568e-16
 28 -4.34993057009406527e-09
 29 -9.58701699871921179e-03
 30 -8.85724763939386821e-16
 31  4.16955790087535562e-17
 32  2.59982787608303569e-15
 33 -4.21372640496303741e-14
 34 -5.05444885523217294e-15
 35 -2.55155936210285479e-14
 36  2.12897611416201803e-14
 37  4.22736061760464077e-01
 38  5.60795653523541379e-15
 39 -5.48655933816132004e-14
 40 -4.91965714647617143e-15
 41 -2.27470224879227073e-14
 42 -2.51437939088030022e-14
 43 -4.22736523075169957e-01
 Sym= A
 Ene=  1.41053266532941213e+00
 Spin= Alpha
 Occup=  0.00000000000000000e+00
  1  1.99251866511128384e-16
  2  6.23235639916396957e-16
  3 -1.28238831092905986e-15
  4 -8.02579889985757647e-15
  5  2.23832054942757810e-14
  6 -5.66580666543639279e-16
  7 -1.57607460388581261e-15
  8 -1.03115731358379925e-01
  9  8.66443469060364998e-16
 10  6.19807393865176595e-15
 11 -5.07418230505934029e-02
 12  1.08799444603662025e-14
 13  4.96558447324681788e-15
 14 -2.09503358294773179e-01
 15  1.77255798689677520e-17
 16  9.33411380903723695e-04
 17  8.28321083100809758e-09
 18 -1.60245661489811356e-16
 19 -5.18719524596261642e-16
 20  8.26748049921642574e-16
 21  6.75961794201472510e-01
 22  2.14143433154416564e-07
 23 -4.73802230610949737e-15
 24  5.31465105316727604e-15
 25  4.04455869748630327e-03
 26  3.24625653796491079e-16
 27  1.18788512058178063e-16
 28  1.38668529236943422e-02
 29 -2.46592193845334197e-08
 30  2.13173987948873385e-17
 31  2.98705494654317502e-16
 32  2.63100706953707420e-15
 33 -2.03626000960021507e-14
 34 -9.15900698131644305e-16
 35 -2.52260854627192861e-15
 36  3.00125020611327519e-15
 37  3.79496793028362478e-01
 38 -3.83360718179405597e-15
 39  4.84951283490647785e-15
 40 -5.26004615409961137e-15
 41 -8.14698452081147013e-15
 42 -4.53673663290219191e-16
 43  3.79496431284552072e-01
 Sym= A
 Ene=  1.64159623480984473e+00
 Spin= Alpha
 Occup=  0.00000000000000000e+00
  1  1.80688138562185806e-08
  2  7.03758896641302398e-08
  3 -9.67404670260137841e-07
  4  3.58700360974231129e-06
  5  2.67248636720429717e-06
  6 -2.33963256041699767e-07
  7 -1.16801393061285605e-01
  8 -1.44013520971390110e-15
  9  1.84181969157636341e-06
 10  9.44758913602550487e-01
 11  1.27912231060605200e-15
 12  1.32389433441520002e-06
 13  9.63459154846917909e-01
 14 -1.48354875258403858e-15
 15 -2.00588090743949449e-09
 16  4.06178582962834748e-17
 17  1.42971908099294608e-16
 18 -4.52258087896252247e-10
 19 -1.01972211788389569e-02
 20 -1.16954755103697510e-06
 21 -6.63431962087163151e-15
 22  2.45853638456540683e-15
 23 -1.73520273728136778e-07
 24  1.21736159949374900e+00
 25 -2.60212283890498321e-16
 26 -8.89990882720754828e-08
 27 -5.48972476324039935e-02
 28  1.00043953515635919e-16
 29  1.31646170328519624e-16
 30 -1.61454929921796409e-07
 31  3.83890741153847595e-02
 32  3.67134230612203516e-01
 33 -2.18993406571670812e+00
 34  4.95680476198358866e-01
 35  4.39168517290394356e-01
 36  1.84205264433834698e-01
 37  8.89414697321994062e-16
 38 -3.67133691101241388e-01
 39  2.18992641254945974e+00
 40 -4.95679966663113203e-01
 41 -4.39166992825501257e-01
 42  1.84203463823555180e-01
 43 -1.53067459666247426e-16
 Sym= A
 Ene=  1.74998963678686748e+00
 Spin= Alpha
 Occup=  0.00000000000000000e+00
  1 -1.55113040430601146e-02
  2 -5.18556811603170936e-02
  3  4.03080635570261747e-01
  4 -7.40989611232026446e-01
  5 -1.85818850349587206e+00
  6  9.90462750995605712e-02
  7  3.33929198419511439e-08
  8 -1.11610342278493035e-15
  9 -5.34232880929882192e-01
 10 -8.78251929516884415e-07
 11  7.45023594281205788e-16
 12 -9.37345190400393102e-01
 13  5.42702912978661534e-07
 14 -1.01750545657296387e-15
 15 -5.94803240319944325e-03
 16  5.30638758236060788e-17
 17  4.22537876437084967e-17
 18  1.46992307759712527e-03
 19 -1.21221740590672736e-09
 20  1.12445882434781019e+00
 21 -1.25371729582225090e-15
 22  4.41998554896509286e-16
 23  2.89870646519670927e-01
 24  1.98273111626611413e-07
 25  1.07738830398664555e-16
 26  3.85915587346850331e-02
 27  3.01120649957270193e-08
 28 -3.80137346107603874e-17
 29 -2.12072600296588516e-16
 30  5.74783589170883222e-02
 31 -3.12468239466693087e-08
 32 -3.48822411188709824e-01
 33  2.09768909738012255e+00
 34 -1.88911892801825881e-01
 35 -1.51863887079996901e-01
 36 -2.42342755437752522e-01
 37 -8.48388477013878563e-17
 38 -3.48823140719904168e-01
 39  2.09768888418405020e+00
 40 -1.88912361181484384e-01
 41 -1.51863892755922852e-01
 42  2.42341272855003231e-01
 43  2.89721215780802139e-15
 Sym= A
 Ene=  1.86650188619542923e+00
 Spin= Alpha
 Occup=  0.00000000000000000e+00
  1 -2.85178064432846472e-09
  2 -1.78043188745152122e-09
  3 -2.33931315202564339e-07
  4  1.38981402197916792e-06
  5 -8.34579881487953755e-07
  6 -1.13816497345770014e-07
  7 -1.76062241765836708e-01
  8  4.95957335910535761e-16
  9  8.30845677589461709e-07
 10  3.34417583881438385e-01
 11 -1.15652624509282779e-15
 12 -5.06738874203753817e-07
 13 -3.63192443908035567e-01
 14  8.27475227801049693e-16
 15 -4.14133852029079588e-09
 16  1.05581324735572976e-16
 17  5.20622889188515133e-17
 18 -1.82824777913529066e-08
 19 -1.26531689870996809e-02
 20  5.01675094849068653e-07
 21  6.06765804359795261e-16
 22 -7.39398817575884140e-16
 23 -3.77612408002240737e-08
 24  4.76559715309623266e-01
 25 -4.25552921608601376e-16
 26 -3.37206378638481739e-08
 27 -2.13199140740916414e-02
 28  4.01505984982798899e-17
 29 -1.21666167838959665e-16
 30 -2.99288707365798520e-08
 31  2.21287652585487951e-02
 32  1.29444016361671743e-01
 33 -5.00410847194825092e-01
 34  3.70595511929104171e-01
 35 -5.14833678847088416e-01
 36  5.84494346974690271e-01
 37  4.60827524247541759e-16
 38 -1.29444044475650721e-01
 39  5.00410488562624045e-01
 40 -3.70595177169151746e-01
 41  5.14834484197754683e-01
 42  5.84493704506868550e-01
 43 -2.13286612661975369e-15
 Sym= A
 Ene=  2.09793955193155712e+00
 Spin= Alpha
 Occup=  0.00000000000000000e+00
  1  1.47214712714456852e-02
  2  6.29032877928505096e-02
  3 -8.08790890593660272e-01
  4  2.57254451020763097e+00
  5 -1.21412969774430377e-01
  6 -4.13063706145327059e-01
  7 -6.05403478472325422e-08
  8 -1.01422574967362585e-15
  9  1.32729702818229711e+00
 10  1.57064568432992861e-06
 11  9.58446210192170773e-16
 12 -6.26760636539511196e-02
 13 -3.37173427508371055e-07
 14 -4.51998440199937914e-16
 15  3.55357097156208711e-03
 16 -2.46162786332411393e-16
 17 -1.44653049070433019e-16
 18  1.69302756167984798e-03
 19  3.81331176769323820e-08
 20  1.33328739545789304e-01
 21  2.21192968511037356e-15
 22  6.53860100724174469e-15
 23 -2.33455099185651105e-01
 24 -2.98925342121011397e-07
 25  4.64399427997860525e-17
 26 -6.59343084258184609e-02
 27 -2.89830697834699316e-08
 28  1.61833306036836723e-16
 29  2.37108458452924403e-16
 30 -1.44604851504214926e-01
 31  4.40510974407019281e-08
 32  6.47135041343686157e-01
 33 -1.89055241305683164e+00
 34  4.87879917754740655e-01
 35  6.07122005973859014e-01
 36  5.60492121394323695e-01
 37 -5.69360686710115194e-15
 38  6.47136045707371821e-01
 39 -1.89055135359048743e+00
 40  4.87879896664402068e-01
 41  6.07120185330434881e-01
 42 -5.60491082604676727e-01
 43  5.11856269702990280e-15
 Sym= A
 Ene=  2.17015118845154609e+00
 Spin= Alpha
 Occup=  0.00000000000000000e+00
  1  4.21014554294893719e-16
  2  1.08340620420629005e-15
  3 -5.14828082883823977e-15
  4  2.01320905041886187e-15
  5  4.27505829264973606e-16
  6 -4.84941368003206342e-15
  7 -7.29666202351961904e-15
  8 -3.28767824863092861e-01
  9  3.59180435624760533e-15
 10  2.34169574791352048e-14
 11  1.65144800330448788e-01
 12 -1.36885472173605772e-15
 13 -7.74433266543341169e-15
 14 -4.80492669750497536e-01
 15 -1.17627587390011457e-16
 16  8.79807509080524248e-03
 17 -2.90799088022645529e-08
 18 -2.11273336919250371e-17
 19 -2.77467530023574074e-16
 20 -5.55813034517094556e-16
 21 -8.77439878911468574e-01
 22  3.42064695376219358e-06
 23 -2.43944436810566340e-15
 24 -3.20017389888941537e-15
 25 -4.41453664548496685e-03
 26 -3.95122327358967977e-17
 27 -1.33578808116345359e-15
 28 -1.53762835247393745e-02
 29 -5.13676048980149736e-08
 30  3.58769550862612638e-16
 31  1.86421950156361278e-16
 32  3.83892838414456529e-15
 33 -1.21412842096202565e-14
 34  4.63946780839574252e-15
 35  5.89224137953435298e-15
 36  5.61323942312231598e-15
 37  7.53736646659839193e-01
 38 -3.55032125657576331e-15
 39  1.21449908984684060e-14
 40 -4.94940897671393786e-15
 41 -6.14109154426290127e-15
 42  1.06644878848299384e-14
 43  7.53741256802994974e-01
 Sym= A
 Ene=  2.22308070722959483e+00
 Spin= Alpha
 Occup=  0.00000000000000000e+00
  1  2.89833619696518216e-16