
    -----------------------------------------------------------------------
          Psi4: An Open-Source Ab Initio Electronic Structure Package
                               Psi4 1.3.2 release

                         Git: Rev {HEAD} ecbda83 


    R. M. Parrish, L. A. Burns, D. G. A. Smith, A. C. Simmonett,
    A. E. DePrince III, E. G. Hohenstein, U. Bozkaya, A. Yu. Sokolov,
    R. Di Remigio, R. M. Richard, J. F. Gonthier, A. M. James,
    H. R. McAlexander, A. Kumar, M. Saitow, X. Wang, B. P. Pritchard,
    P. Verma, H. F. Schaefer III, K. Patkowski, R. A. King, E. F. Valeev,
    F. A. Evangelista, J. M. Turney, T. D. Crawford, and C. D. Sherrill,
    J. Chem. Theory Comput. 13(7) pp 3185--3197 (2017).
    (doi: 10.1021/acs.jctc.7b00174)


                         Additional Contributions by
    P. Kraus, H. Kruse, M. H. Lechner, M. C. Schieber, R. A. Shaw,
    A. Alenaizan, R. Galvelis, Z. L. Glick, S. Lehtola, and J. P. Misiewicz

    -----------------------------------------------------------------------


    Psi4 started on: Wednesday, 05 February 2020 01:43PM

    Process ID: 861
    Host:       rh05314.villa-bosch.de
    PSIDATADIR: /media/miniconda3/envs/p4env/share/psi4
    Memory:     500.0 MiB
    Threads:    1
    
  ==> Input File <==

--------------------------------------------------------------------------

# PYTHONPATH must include directory above plugin directory.
#     Define either externally or here, then import plugin.

molecule {
  C    0.00000001055502      0.00000000005674     -0.00000000975578
  O   -0.00000000527751      1.15997617530518      0.00000000487789
  O   -0.00000000527751     -1.15997617536192      0.00000000487789
symmetry c1
}

set {
  basis def2-TZVP
}


set scf {
 reference uks
}

energy('HF')
--------------------------------------------------------------------------

*** tstart() called on rh05314.villa-bosch.de
*** at Wed Feb  5 13:43:31 2020

   => Loading Basis Set <=

    Name: DEF2-TZVP
    Role: ORBITAL
    Keyword: BASIS
    atoms 1   entry C          line   123 file /media/miniconda3/envs/p4env/share/psi4/basis/def2-tzvp.gbs 
    atoms 2-3 entry O          line   189 file /media/miniconda3/envs/p4env/share/psi4/basis/def2-tzvp.gbs 


         ---------------------------------------------------------
                                   SCF
               by Justin Turney, Rob Parrish, Andy Simmonett
                          and Daniel G. A. Smith
                              UKS Reference
                        1 Threads,    500 MiB Core
         ---------------------------------------------------------

  ==> Geometry <==

    Molecular point group: c1
    Full point group: C_inf_v

    Geometry (in Angstrom), charge = 0, multiplicity = 1:

       Center              X                  Y                   Z               Mass       
    ------------   -----------------  -----------------  -----------------  -----------------
         C            0.000000011514     0.000000010642     0.000000000062    12.000000000000
         O            0.000000011514     0.000000010642     1.159976175310    15.994914619570
         O           -0.000000020151    -0.000000018626    -1.159976175357    15.994914619570

  Running in c1 symmetry.

  Rotational constants: A = ************  B =      0.39164  C =      0.39164 [cm^-1]
  Rotational constants: A = ************  B =  11741.05544  C =  11741.05544 [MHz]
  Nuclear repulsion =   58.393167382323995

  Charge       = 0
  Multiplicity = 1
  Electrons    = 22
  Nalpha       = 11
  Nbeta        = 11

  ==> Algorithm <==

  SCF Algorithm Type is DF.
  DIIS enabled.
  MOM disabled.
  Fractional occupation disabled.
  Guess Type is SAD.
  Energy threshold   = 1.00e-06
  Density threshold  = 1.00e-06
  Integral threshold = 0.00e+00

  ==> Primary Basis <==

  Basis Set: DEF2-TZVP
    Blend: DEF2-TZVP
    Number of shells: 33
    Number of basis function: 93
    Number of Cartesian functions: 108
    Spherical Harmonics?: true
    Max angular momentum: 3

   => Loading Basis Set <=

    Name: (DEF2-TZVP AUX)
    Role: JKFIT
    Keyword: DF_BASIS_SCF
    atoms 1   entry C          line   203 file /media/miniconda3/envs/p4env/share/psi4/basis/def2-tzvp-jkfit.gbs 
    atoms 2-3 entry O          line   323 file /media/miniconda3/envs/p4env/share/psi4/basis/def2-tzvp-jkfit.gbs 

  ==> Pre-Iterations <==

   -------------------------------------------------------
    Irrep   Nso     Nmo     Nalpha   Nbeta   Ndocc  Nsocc
   -------------------------------------------------------
     A         93      93       0       0       0       0
   -------------------------------------------------------
    Total      93      93      11      11      11       0
   -------------------------------------------------------

  ==> Integral Setup <==

  DFHelper Memory: AOs need 0.017 GiB; user supplied 0.366 GiB. Using in-core AOs.

  ==> MemDFJK: Density-Fitted J/K Matrices <==

    J tasked:                   Yes
    K tasked:                   Yes
    wK tasked:                   No
    OpenMP threads:               1
    Memory [MiB]:               375
    Algorithm:                 Core
    Schwarz Cutoff:           1E-12
    Mask sparsity (%):       0.8325
    Fitting Condition:        1E-10

   => Auxiliary Basis Set <=

  Basis Set: (DEF2-TZVP AUX)
    Blend: DEF2-TZVP-JKFIT
    Number of shells: 75
    Number of basis function: 229
    Number of Cartesian functions: 275
    Spherical Harmonics?: true
    Max angular momentum: 4

  Minimum eigenvalue in the overlap matrix is 4.7460062642E-04.
  Using Symmetric Orthogonalization.

  SCF Guess: Superposition of Atomic Densities via on-the-fly atomic UHF.

  ==> Iterations <==

                           Total Energy        Delta E     RMS |[F,P]|

   @DF-UKS iter SAD:  -186.84571100724841   -1.86846e+02   0.00000e+00 
   @DF-UKS iter   1:  -187.63187274474348   -7.86162e-01   5.41727e-03 DIIS
   @DF-UKS iter   2:  -187.67262773809063   -4.07550e-02   3.96639e-03 DIIS
   @DF-UKS iter   3:  -187.71606044740878   -4.34327e-02   1.87683e-04 DIIS
   @DF-UKS iter   4:  -187.71625077030387   -1.90323e-04   3.89664e-05 DIIS
   @DF-UKS iter   5:  -187.71625953190915   -8.76161e-06   8.33316e-06 DIIS
   @DF-UKS iter   6:  -187.71626004573011   -5.13821e-07   1.30868e-06 DIIS
   @DF-UKS iter   7:  -187.71626005882075   -1.30906e-08   3.22214e-07 DIIS
  Energy and wave function converged.


  ==> Post-Iterations <==

   @Spin Contamination Metric:   7.815970093E-14
   @S^2 Expected:                0.000000000E+00
   @S^2 Observed:                7.815970093E-14
   @S   Expected:                0.000000000E+00
   @S   Observed:                0.000000000E+00

    Orbital Energies [Eh]
    ---------------------

    Alpha Occupied:                                                       

       1A    -20.649623     2A    -20.649579     3A    -11.458664  
       4A     -1.530600     5A     -1.477479     6A     -0.799733  
       7A     -0.742953     8A     -0.715483     9A     -0.715483  
      10A     -0.544165    11A     -0.544165  

    Alpha Virtual:                                                        

      12A      0.133934    13A      0.198044    14A      0.198044  
      15A      0.261438    16A      0.303155    17A      0.303155  
      18A      0.488973    19A      0.493398    20A      0.551145  
      21A      0.579167    22A      0.579167    23A      0.756391  
      24A      0.756391    25A      0.757937    26A      0.757937  
      27A      0.880872    28A      0.981216    29A      1.199880  
      30A      1.199880    31A      1.267875    32A      1.500554  
      33A      1.545934    34A      1.566892    35A      1.566892  
      36A      1.639197    37A      1.639197    38A      1.927116  
      39A      1.927116    40A      1.929098    41A      2.188160  
      42A      2.188160    43A      2.287721    44A      2.287721  
      45A      2.560257    46A      2.722226    47A      2.841577  
      48A      2.841577    49A      3.097122    50A      3.097122  
      51A      3.112863    52A      3.112863    53A      3.138604  
      54A      3.138604    55A      3.223300    56A      3.223300  
      57A      3.257741    58A      3.400708    59A      3.646948  
      60A      3.726087    61A      3.726087    62A      4.012194  
      63A      4.143172    64A      4.143172    65A      5.256215  
      66A      5.274281    67A      5.504389    68A      5.504389  
      69A      5.573945    70A      5.573945    71A      5.631916  
      72A      5.631916    73A      6.250128    74A      6.250128  
      75A      6.506019    76A      6.608564    77A      6.608564  
      78A      6.786129    79A      6.786129    80A      6.786824  
      81A      6.786824    82A      6.921118    83A      6.921118  
      84A      7.206338    85A      7.206338    86A      7.373850  
      87A      7.505178    88A      7.505178    89A      7.904040  
      90A      8.033126    91A     25.029552    92A     45.456657  
      93A     45.620096  

    Beta Occupied:                                                        

       1A    -20.649623     2A    -20.649579     3A    -11.458664  
       4A     -1.530600     5A     -1.477479     6A     -0.799733  
       7A     -0.742953     8A     -0.715483     9A     -0.715483  
      10A     -0.544165    11A     -0.544165  

    Beta Virtual:                                                         

      12A      0.133934    13A      0.198044    14A      0.198044  
      15A      0.261438    16A      0.303155    17A      0.303155  
      18A      0.488973    19A      0.493398    20A      0.551145  
      21A      0.579167    22A      0.579167    23A      0.756391  
      24A      0.756391    25A      0.757937    26A      0.757937  
      27A      0.880872    28A      0.981216    29A      1.199880  
      30A      1.199880    31A      1.267875    32A      1.500554  
      33A      1.545934    34A      1.566892    35A      1.566892  
      36A      1.639197    37A      1.639197    38A      1.927116  
      39A      1.927116    40A      1.929098    41A      2.188160  
      42A      2.188160    43A      2.287721    44A      2.287721  
      45A      2.560257    46A      2.722226    47A      2.841577  
      48A      2.841577    49A      3.097122    50A      3.097122  
      51A      3.112863    52A      3.112863    53A      3.138604  
      54A      3.138604    55A      3.223300    56A      3.223300  
      57A      3.257741    58A      3.400708    59A      3.646948  
      60A      3.726087    61A      3.726087    62A      4.012194  
      63A      4.143172    64A      4.143172    65A      5.256215  
      66A      5.274281    67A      5.504389    68A      5.504389  
      69A      5.573945    70A      5.573945    71A      5.631916  
      72A      5.631916    73A      6.250128    74A      6.250128  
      75A      6.506019    76A      6.608564    77A      6.608564  
      78A      6.786129    79A      6.786129    80A      6.786824  
      81A      6.786824    82A      6.921118    83A      6.921118  
      84A      7.206338    85A      7.206338    86A      7.373850  
      87A      7.505178    88A      7.505178    89A      7.904040  
      90A      8.033126    91A     25.029552    92A     45.456657  
      93A     45.620096  

    Final Occupation by Irrep:
              A 
    DOCC [    11 ]
    SOCC [     0 ]

  @DF-UKS Final Energy:  -187.71626005882075

   => Energetics <=

    Nuclear Repulsion Energy =             58.3931673823239947
    One-Electron Energy =                -372.5629518901571373
    Two-Electron Energy =                 126.4535244490123773
    Total Energy =                       -187.7162600588207511

  UHF NO Occupations:
  HONO-2 :    9  A 2.0000000
  HONO-1 :   10  A 2.0000000
  HONO-0 :   11  A 2.0000000
  LUNO+0 :   12  A 0.0000000
  LUNO+1 :   13  A 0.0000000
  LUNO+2 :   14  A 0.0000000
  LUNO+3 :   15  A 0.0000000


Computation Completed


Properties will be evaluated at   0.000000,   0.000000,   0.000000 [a0]

Properties computed using the SCF density matrix

  Nuclear Dipole Moment: [e a0]
     X:    -0.0000      Y:    -0.0000      Z:    -0.0000

  Electronic Dipole Moment: [e a0]
     X:     0.0000      Y:     0.0000      Z:     0.0000

  Dipole Moment: [e a0]
     X:     0.0000      Y:     0.0000      Z:     0.0000     Total:     0.0000

  Dipole Moment: [D]
     X:     0.0000      Y:     0.0000      Z:     0.0000     Total:     0.0000


*** tstop() called on rh05314.villa-bosch.de at Wed Feb  5 13:43:31 2020
Module time:
	user time   =       0.53 seconds =       0.01 minutes
	system time =       0.01 seconds =       0.00 minutes
	total time  =          0 seconds =       0.00 minutes
Total time:
	user time   =       0.53 seconds =       0.01 minutes
	system time =       0.01 seconds =       0.00 minutes
	total time  =          0 seconds =       0.00 minutes

    Psi4 stopped on: Wednesday, 05 February 2020 01:43PM
    Psi4 wall time for execution: 0:00:00.56

*** Psi4 exiting successfully. Buy a developer a beer!
