[Molden Format]
[Atoms] (AU)
O    1    8        -0.123672762329       0.000000046922       0.000000000000
H    2    1         0.981388135752       1.445736960150       0.000000000000
H    3    1         0.981388349216      -1.445737704840       0.000000000000
[GTO]
  1 0
 s    6  1.00
    27032.3826310000         0.0002172630
     4052.3871392000         0.0016838662
      922.3272271000         0.0087395616
      261.2407098900         0.0352399688
       85.3546413510         0.1115351912
       31.0350352450         0.2558895396
 s    2  1.00
       12.2608607280         0.3976873090
        4.9987076005         0.2462784943
 s    1  1.00
        1.1703108158         1.0000000000
 s    1  1.00
        0.4647474099         1.0000000000
 s    1  1.00
        0.1850453636         1.0000000000
 p    4  1.00
       63.2749548010         0.0060685103
       14.6270493790         0.0419125758
        4.4501223456         0.1615384109
        1.5275799647         0.3570695131
 p    1  1.00
        0.5293511794         1.0000000000
 p    1  1.00
        0.1747842127         1.0000000000
 d    1  1.00
        2.3140000000         1.0000000000
 d    1  1.00
        0.6450000000         1.0000000000
 f    1  1.00
        1.4280000000         1.0000000000

  2 0
 s    3  1.00
       34.0613410000         0.0060251978
        5.1235746000         0.0450210940
        1.1646626000         0.2018972600
 s    1  1.00
        0.3272304100         1.0000000000
 s    1  1.00
        0.1030724100         1.0000000000
 p    1  1.00
        0.8000000000         1.0000000000

  3 0
 s    3  1.00
       34.0613410000         0.0060251978
        5.1235746000         0.0450210940
        1.1646626000         0.2018972600
 s    1  1.00
        0.3272304100         1.0000000000
 s    1  1.00
        0.1030724100         1.0000000000
 p    1  1.00
        0.8000000000         1.0000000000

[5D]
[9G]

[MO]
 Sym= A
 Ene= -2.05604232015243937e+01
 Spin= Alpha
 Occup=  1.00000000000000000e+00
  1  4.35633069439008092e-01
  2  6.42398150671599777e-01
  3  2.18573051178269848e-02
  4 -8.74492218320147702e-03
  5  3.65644866995492191e-03
  6  1.75737632249046267e-03
  7 -4.26503478766478576e-11
  8  9.63894486412250792e-17
  9 -1.64109215880819839e-03
 10  9.36464699170798109e-10
 11 -1.48116921409569074e-16
 12  6.10735020405123717e-04
 13  2.05344242527846817e-10
 14 -2.78771587619027666e-18
 15 -1.28606413022191556e-05
 16  4.82956340285137774e-17
 17  5.26344163421737540e-17
 18  1.61002820463775710e-05
 19  1.36280323179495148e-10
 20  3.81378109014586237e-04
 21 -9.34069578250214449e-17
 22  2.60956778289149504e-17
 23  1.09717711622354244e-04
 24  5.84656845380129747e-10
 25  1.18427996088799897e-17
 26  3.52458742849956629e-05
 27 -1.36598956297063193e-10
 28 -5.15672108729856795e-19
 29 -1.12287010366553654e-16
 30  3.94726693081125520e-05
 31  4.85411239480210468e-11
 32  4.33929363655636039e-04
 33  6.34225806616129013e-04
 34 -7.36134491432909391e-04
 35 -1.74864015218714172e-04
 36 -3.36125668554346105e-04
 37  6.32766246659304996e-18
 38  4.33929534809931203e-04
 39  6.34226777151285052e-04
 40 -7.36133981780554350e-04
 41 -1.74864796920410411e-04
 42  3.36126659884299073e-04
 43  2.90716236002068074e-16
 Sym= A
 Ene= -1.34630674462130906e+00
 Spin= Alpha
 Occup=  1.00000000000000000e+00
  1  9.60522417996744343e-02
  2  2.32591595753428498e-01
  3 -3.27772240571255258e-01
  4 -4.66297528390401006e-01
  5 -1.59206667301314553e-01
  6 -5.84556855037826201e-02
  7 -6.61613088026604099e-08
  8 -5.71591022229233156e-16
  9 -6.06779422384162853e-02
 10 -3.09671563491225811e-08
 11 -2.11768682375023605e-16
 12 -6.64025158926597348e-03
 13 -1.04991394374469143e-09
 14 -2.73970439931621795e-16
 15  3.87471613024692289e-03
 16  1.06276632001494192e-16
 17 -1.66926870337276153e-16
 18  1.23246661426738738e-03
 19 -8.13515968244293037e-09
 20  1.05821931827968108e-02
 21 -1.50331154449055337e-17
 22  8.90476339436845506e-17
 23  2.03601494499246931e-03
 24 -2.21560611977511321e-09
 25 -8.71930762661368091e-17
 26  3.04354315624344668e-03
 27  1.80157800428572913e-09
 28 -3.81804535479611575e-17
 29 -8.44164951855112314e-17
 30  5.07541072111918849e-03
 31 -2.48186508581673307e-09
 32 -8.66766460164319213e-02
 33 -6.54083625297193078e-02
 34 -4.27455637231962619e-03
 35  8.45544791326979100e-03
 36  1.40075111410714465e-02
 37 -2.28803334539085910e-16
 38 -8.66765397034036239e-02
 39 -6.54083091446384240e-02
 40 -4.27455160070257592e-03
 41  8.45543164232358431e-03
 42 -1.40074975189843354e-02
 43  1.08874719601638254e-16
 Sym= A
 Ene= -7.13008008180661790e-01
 Spin= Alpha
 Occup=  1.00000000000000000e+00
  1  2.47908501250753453e-08
  2  6.01978532534112973e-08
  3 -7.81542737180773267e-08
  4 -1.85434683881870467e-07
  5 -1.75690903808766328e-07
  6  2.04691969993627415e-07
  7  3.66793243509975886e-01
  8  3.80040008340172755e-15
  9  1.44224076213750054e-07
 10  3.22879450727485251e-01
 11  6.68915062626245446e-15
 12  6.51888083556709153e-08
 13  1.24283751713198984e-01
 14 -7.65548109199134693e-15
 15 -5.41323579439290836e-09
 16  3.20112936870815539e-17
 17 -4.33505007448913766e-17
 18  5.12571261389465886e-10
 19  1.35258815517929776e-02
 20 -1.08997702240757468e-09
 21  3.28481736776160805e-16
 22  6.22224028157630143e-17
 23  1.24246865675663935e-08
 24  3.43232590951359287e-02
 25 -6.64804344288303947e-17
 26 -2.26908233557178399e-09
 27 -5.99521210383615385e-03
 28 -1.16809489361350598e-17
 29 -8.19662021597736441e-17
 30 -2.09115139014814096e-09
 31  3.07827228720131802e-04
 32  1.39847417509184085e-01
 33  1.84803060321879709e-01
 34  5.17054016918584505e-02
 35 -1.73888559804277164e-02
 36 -9.91002204519096999e-03
 37  2.17735115385343668e-16
 38 -1.39847341275121356e-01
 39 -1.84802999616127839e-01
 40 -5.17054154834531779e-02
 41  1.73888501303036923e-02
 42 -9.91001293485339191e-03
 43  1.88196324142473291e-16
 Sym= A
 Ene= -5.78830606337393250e-01
 Spin= Alpha
 Occup=  1.00000000000000000e+00
  1 -3.15184535631246182e-02
  2 -7.77701551241966049e-02
  3  1.24106855620549655e-01
  4  1.81732788935337813e-01
  5  1.90937731552884571e-01
  6 -4.06857224075649004e-01
  7  1.47528180531507815e-07
  8 -1.95195629231832587e-15
  9 -3.54707751784184788e-01
 10  1.55104066100819352e-07
 11 -1.35609441111045377e-15
 12 -2.27460472525350593e-01
 13  7.83242052040185622e-08
 14 -1.25130560995831089e-15
 15  5.50791823857123622e-03
 16 -3.46949190797711217e-17
 17  1.02110448802749442e-16
 18 -1.94483422639963634e-03
 19  1.18003004130528365e-09
 20  1.72408432279400094e-02
 21 -2.37970149847154228e-16
 22 -1.38551152764101774e-16
 23 -1.99521375387265200e-02
 24  1.68517274354095937e-08
 25  1.40136705891911207e-16
 26  4.03734216580508339e-03
 27 -2.15371807802644550e-09
 28 -5.06561901996267390e-17
 29  2.66045757188897496e-17
 30  2.35257161163922226e-03
 31 -2.04540491953119661e-09
 32 -8.51290544942474858e-02
 33 -1.23096490071845310e-01
 34 -3.35751330174956369e-02
 35 -7.41882502327138784e-03
 36  1.73739601734915483e-02
 37 -2.46481222739330430e-16
 38 -8.51291378081996397e-02
 39 -1.23096645948047631e-01
 40 -3.35752254637334407e-02
 41 -7.41881466077953973e-03
 42 -1.73739593846813228e-02
 43 -6.74975858254426073e-18
 Sym= A
 Ene= -5.07354127665531895e-01
 Spin= Alpha
 Occup=  1.00000000000000000e+00
  1 -1.00038182637437727e-16
  2 -2.01799074718089723e-16
  3  1.12873810161632454e-15
  4 -2.77034652223105166e-15
  5  4.12322742646935147e-15
  6 -1.06175299764051506e-15
  7 -2.79908985608099525e-16
  8  4.63924266893517456e-01
  9 -2.20527070094385463e-15
 10 -2.08987242177400671e-15
 11  4.15336122580048872e-01
 12 -1.11038995583936372e-16
 13 -5.12889580415128008e-16
 14  3.13660524903685511e-01
 15 -3.55243012000182210e-17
 16  4.18982513083712878e-03
 17  2.51270271820618640e-09
 18  5.92011405013309323e-19
 19 -1.00031457977472649e-16
 20  9.07167243726558220e-16
 21  2.54365591533466003e-02
 22  2.26793071173680932e-09
 23  2.99892302890931665e-16
 24 -7.35023673629564497e-16
 25 -5.50075892607901525e-03
 26 -1.35214964452990364e-16
 27  5.66027135286221882e-17
 28 -1.65617610624181123e-03
 29  1.76069458636291189e-09
 30  1.09640535220793226e-16
 31 -5.98275179031935201e-17
 32 -1.31142682078926625e-15
 33  9.03955849754603080e-16
 34 -4.56198899282611469e-15
 35 -2.57407399924671771e-16
 36 -1.37481807198656364e-15
 37  2.37043156045852049e-02
 38  1.55170294216819373e-17
 39 -8.08414005148249471e-16
 40  1.23726166433991631e-15
 41 -3.85910484615144302e-16
 42 -3.22652977392055906e-16
 43  2.37043049267401836e-02
 Sym= A
 Ene=  1.27224469342814756e-01
 Spin= Alpha
 Occup=  0.00000000000000000e+00
  1  2.64025461672708420e-02
  2  7.11645989074007196e-02
  3 -1.92828476527547060e-01
  4  2.28515117654965016e-01
  5 -1.39103114675715367e+00
  6 -1.19593662996344330e-01
  7  1.34487622850806199e-07
  8 -5.85312787337185918e-17
  9 -5.49070148391971116e-02
 10  1.59339913211457459e-07
 11  6.52436398082974190e-16
 12 -3.67008167847142630e-01
 13  3.12735028613975375e-07
 14 -1.48801232712456287e-16
 15 -3.37505361504359476e-04
 16  1.16083769330046528e-17
 17 -3.54621649366076238e-17
 18 -1.36622284379835177e-03
 19 -2.39038367875808677e-09
 20 -5.27462095706939232e-03
 21  1.62967975839599954e-16
 22 -1.22694340669022738e-16
 23 -1.03176357950405424e-02
 24  2.50749630732970028e-08
 25  3.97578447226368747e-18
 26  4.41264058946469690e-04
 27 -2.67727189557130145e-09
 28 -2.25405342700994935e-17
 29  8.42279361619105047e-18
 30 -5.59514716226070202e-04
 31 -7.17734118497421053e-10
 32  2.51946198420020043e-02
 33 -1.76729217109661205e-02
 34  1.06151170834651021e+00
 35  2.00709780827100122e-02
 36  2.85191676182477011e-02
 37 -1.19671515680678965e-16
 38  2.51947180780653507e-02
 39 -1.76727868316935814e-02
 40  1.06151238965317507e+00
 41  2.00709534871238923e-02
 42 -2.85191271026051241e-02
 43  1.23936711341167742e-16
 Sym= A
 Ene=  1.96866425087269259e-01
 Spin= Alpha
 Occup=  0.00000000000000000e+00
  1  8.34168820124015158e-09
  2  2.59832398053217447e-08
  3 -1.34052007075991416e-07
  4  4.26148195734278520e-07
  5 -1.00622868969117654e-06
  6 -1.23636148787434174e-08
  7 -1.89392824968136531e-01
  8  8.16049093622979967e-16
  9  1.16827346912943455e-07
 10 -5.59648683858165498e-03
 11  1.97343207952337283e-15
 12 -1.26958743245800080e-07
 13 -7.42706587575847843e-01
 14 -1.95388338577000347e-15
 15  1.78952601134240115e-09
 16  2.82886213297726113e-17
 17 -1.97221981657687369e-17
 18  1.45553630290748048e-09
 19 -1.14013385180180551e-03
 20 -2.56625180958987755e-08
 21 -5.36796024618971016e-17
 22  1.06194496234328561e-16
 23 -4.33854484175350383e-10
 24  3.54035143158666285e-02
 25 -6.39306639631557404e-17
 26 -2.03262213912271455e-09
 27 -1.47306736562668149e-03
 28  1.84569306339143284e-17
 29  2.82375071769779048e-17
 30 -2.48066881955557239e-09
 31  3.31800620550436708e-03
 32  1.69137742675034078e-02
 33 -1.58859332764334366e-01
 34  1.84542443306047299e+00
 35  3.47297854446179943e-02
 36  4.08933668515381182e-02
 37  1.07517062676043186e-17
 38 -1.69138627822018259e-02
 39  1.58858993782024199e-01
 40 -1.84542322629198563e+00
 41 -3.47296973512409013e-02
 42  4.08932842078148784e-02
 43  1.58419384413144611e-16
 Sym= A
 Ene=  5.23571083638468160e-01
 Spin= Alpha
 Occup=  0.00000000000000000e+00
  1  3.63201380568460632e-08
  2  8.25894245776296867e-08
  3 -4.84365686814129923e-08
  4 -3.93982817026828696e-07
  5  5.83748759837803962e-07
  6 -1.44259946953467017e-07
  7  8.88018157568922911e-02
  8  8.70359551146494634e-16
  9 -6.72287348064813778e-08
 10  3.24394549143696698e-01
 11  2.85501596391977167e-15
 12 -4.05872874315939865e-07
 13  1.53121451103815831e+00
 14 -5.01614175084828183e-15
 15 -1.76390477926053150e-08
 16  1.14106770489286252e-16
 17  8.85736497813938598e-17
 18 -1.62382753219146610e-08
 19 -3.61312937743682311e-02
 20 -2.12979820504428046e-08
 21 -7.90149228895048813e-17
 22 -9.24840430147655634e-17
 23 -5.80441955744822950e-09
 24  1.72572244610509906e-01
 25 -2.75671914677034479e-16
 26  4.66222687960733912e-10
 27 -1.57412882500880709e-02
 28 -1.58673789851964710e-16
 29  1.45593258163443505e-16
 30  4.94181667908760189e-09
 31  4.63851285307024033e-03
 32 -9.19613934423111623e-02
 33 -1.53490145883595375e+00
 34  2.04616198643127745e-01
 35  6.21011219773393991e-02
 36  1.02999894260833710e-01
 37 -4.97988729119302535e-16
 38  9.19615123015978669e-02
 39  1.53490395656206347e+00
 40 -2.04618133807752262e-01
 41 -6.21010883918710968e-02
 42  1.02999837179468590e-01
 43 -1.44833716247393505e-16
 Sym= A
 Ene=  5.64883590160699223e-01
 Spin= Alpha
 Occup=  0.00000000000000000e+00
  1 -3.13578182528626848e-02
  2 -6.87424526489511939e-02
  3 -5.32750423513024332e-02
  4  8.32901877590915829e-01
  5  7.04341919992569232e-01
  6 -9.80219667814443280e-02
  7 -2.79936651807766748e-08
  8  8.44223068176356600e-16
  9 -1.68369646966699316e-01
 10  3.97960802074891102e-07
 11  2.56212733338954339e-15
 12  1.60850874716735270e+00
 13  2.02768358283999287e-06
 14 -4.43716613221465223e-15
 15  1.96440953810227935e-02
 16 -8.36308774057471997e-17
 17  4.82871991566342264e-17
 18  2.92356246650559261e-03
 19 -3.64864513281597095e-08
 20 -8.50516312421444459e-02
 21 -4.15199022929168831e-16
 22  6.60279829352531327e-17
 23 -6.39430978708770744e-03
 24  2.91983413221844484e-07
 25  4.09666800462140818e-17
 26 -8.10437100116656942e-03
 27 -1.78577307289010507e-08
 28  7.36177856562564155e-18
 29  2.17940202079959620e-17
 30 -1.53768331983456172e-02
 31  1.45706756993707301e-08
 32 -4.82400516059147619e-02
 33 -1.39547938284434880e+00
 34  2.33700481758824269e-01
 35  5.78399672771322190e-02
 36  8.24896022752843183e-02
 37 -1.05535638568539811e-16
 38 -4.82398774304972425e-02
 39 -1.39547603698923295e+00
 40  2.33701579055474035e-01
 41  5.78397065765601445e-02
 42 -8.24892433018303839e-02
 43  2.32088957038287662e-17
 Sym= A
 Ene=  5.97520077766928726e-01
 Spin= Alpha
 Occup=  0.00000000000000000e+00
  1 -1.61440356178423533e-17
  2  7.01869954259166265e-17
  3 -1.19302114078626792e-15
  4  3.11739085967103968e-15
  5 -3.18650618750684502e-15
  6 -1.60578295858788109e-15
  7  2.78513049463843652e-15
  8 -2.71985542985549167e-01
  9 -3.34612123922229300e-15
 10  8.79107272414211356e-15
 11 -7.43610092665606404e-01
 12  5.47845903338687299e-15
 13  1.21072581128605057e-15
 14  1.26478435029968472e+00
 15 -1.59255938723179064e-16
 16 -6.64314284768736593e-03
 17 -2.32079191058924070e-09
 18 -9.84000451769416873e-18
 19  1.34001995550672129e-15
 20  6.70524689601962916e-16
 21  8.35311483472122446e-03
 22 -7.66701259351629653e-10
 23  7.11516509598958903e-17
 24  1.49337846633808549e-15
 25  1.03588810641518894e-03
 26  1.64288676895845349e-16
 27 -1.30258442860898258e-15
 28  4.23784067636990755e-04
 29  9.49734745277401977e-10
 30  4.45503498272975998e-17
 31  9.14197007359832129e-16
 32 -3.71525292172962185e-16
 33 -6.49549443004641988e-15
 34  7.83412291645791578e-15
 35  5.67644394094349113e-16
 36  1.58038419165056808e-15
 37 -1.40506116371322976e-02
 38  6.70664805880854051e-17
 39  8.48667346513759043e-15
 40 -9.04421560087287782e-15
 41 -1.57779459013380019e-15
 42  1.81167321224368561e-15
 43 -1.40505815677513524e-02
 Sym= A
 Ene=  6.38557684481399046e-01
 Spin= Alpha
 Occup=  0.00000000000000000e+00
  1  1.16805074799338927e-02
  2  2.79358534641286974e-02
  3  1.70808814685257902e-02
  4 -2.85651947223062419e-01
  5 -7.30980392618227559e-01
  6 -2.79793973641902116e-01
  7  1.45589934269354539e-07
  8  9.70021834175405666e-16
  9 -8.29034490664285917e-01
 10 -2.45767544919280776e-07
 11  3.01124117446550077e-15
 12  3.32716111569113349e-01
 13 -2.54204650337053350e-06
 14 -4.05161474665190344e-15
 15 -1.02293655725298107e-02
 16  2.43370525672383765e-17
 17  4.45576432651780152e-17
 18 -1.15214168467815646e-02
 19  3.89004137193425454e-08
 20  4.37486559437880590e-02
 21  5.21629753478607495e-16
 22 -2.69047352366115007e-16
 23  8.91536000812948037e-03
 24 -3.60394084821298238e-07
 25 -5.70426040162945906e-17
 26  7.69090165607841207e-03
 27  2.92370194282613025e-08
 28  3.86489123886339193e-17
 29 -6.06049447847440777e-17
 30  1.51591418479686442e-02
 31 -1.86428520836939617e-08
 32  6.46388838542224231e-02
 33  1.23208484046191868e+00
 34 -4.97512910809575992e-01
 35 -6.07263608107920516e-02
 36 -3.64784072114086172e-02
 37  5.41559116697972592e-17
 38  6.46387492031988420e-02
 39  1.23208140072729533e+00
 40 -4.97514575125391711e-01
 41 -6.07259784111737894e-02
 42  3.64779383539596824e-02
 43 -4.04812001673220670e-16
 Sym= A
 Ene=  7.68426473261889953e-01
 Spin= Alpha
 Occup=  0.00000000000000000e+00
  1 -5.05592292353411951e-02
  2 -1.03903151875284053e-01
  3 -1.62507276007217510e-01
  4  2.39431210279470585e+00
  5 -4.81328072145038544e+00
  6  8.23157092851208444e-02
  7 -2.69667628935765565e-06
  8  7.84778859333178650e-16
  9  5.78817547836996335e-02
 10 -7.35410714803956630e-06
 11 -1.33946407973240352e-15
 12 -1.24755711512005663e+00
 13  1.48554754270551912e-05
 14  1.99585795372508203e-16
 15 -1.62904003581761971e-02
 16  2.54566878690621387e-16
 17  3.97151648138437066e-17
 18 -4.84917420970479903e-03
 19 -5.87166158270955340e-08
 20  6.31191032065970686e-02
 21 -1.25343911035969111e-16
 22  1.00316867921978928e-15
 23  1.07520906366647059e-02
 24  2.60651479517072811e-07
 25  9.98380362310993929e-17
 26  5.56907633353870193e-03
 27  4.40930515353750784e-09
 28 -1.20843860217860773e-17
 29 -3.10565912031485063e-17
 30  1.17540802422383423e-02
 31  5.78373783723651615e-09
 32 -2.24608638928698555e-02
 33  8.27593833477478613e-01
 34  9.60447157300413523e-01
 35 -5.93594398553888777e-02
 36 -6.46492390352023660e-02
 37  1.06093619431001525e-15
 38 -2.24616689762615895e-02
 39  8.27588586936803483e-01
 40  9.60470591923577866e-01
 41 -5.93598966175167830e-02
 42  6.46494462776948525e-02
 43  9.07586350885554435e-16
 Sym= A
 Ene=  7.72620069626841266e-01
 Spin= Alpha
 Occup=  0.00000000000000000e+00
  1 -4.26492220076090249e-07
  2 -8.76761601464512718e-07
  3 -1.45519990157008771e-06
  4  2.03195970158761379e-05
  5 -3.85075875219235975e-05
  6  7.81166304360022235e-07
  7  3.32835580692748323e-01
  8  8.03279001442446159e-16
  9  1.10711422618080521e-06
 10  9.02830533803009594e-01
 11  6.78094004616032120e-16
 12 -9.73761600198281283e-06
 13 -1.84367573874456103e+00
 14 -3.20500502405772270e-15
 15 -1.17946275882868973e-07
 16 -8.09779127214132191e-17
 17  1.90863855051719994e-16
 18 -3.30356572354134040e-08
 19  6.61799006714989310e-03
 20  3.89351406207218611e-07
 21  4.02633237540107839e-17
 22 -6.13199567824050712e-16
 23  4.58471308729941053e-08
 24 -3.00726154659721051e-02
 25  2.55465498989686422e-16
 26  2.63020105446819752e-08
 27 -1.77469860599665510e-03
 28 -1.44551383052326164e-16
 29 -1.15180076933000102e-16
 30  5.88799246721059305e-08
 31 -5.89637198435575974e-04
 32 -4.98123511537269734e-02
 33 -3.32658685473051718e-01
 34  1.52791611598159816e+00
 35 -2.59978189089823640e-02
 36 -9.64397954596369136e-03
 37  5.26870301131400349e-16
 38  4.98119472048223280e-02
 39  3.32669043734635184e-01
 40 -1.52789962198501650e+00
 41  2.59971117891090835e-02
 42 -9.64325999247689358e-03
 43  5.71055634495377365e-16
 Sym= A
 Ene=  1.41682060544746657e+00
 Spin= Alpha
 Occup=  0.00000000000000000e+00
  1  3.16770917749235013e-03
  2  8.78602169010423914e-03
  3 -4.26138083423871564e-02
  4 -3.91048679092479284e-02
  5  8.73936148231583498e-01
  6  7.32323601048419093e-02
  7 -1.88952333124493409e-08
  8  1.57619388231236309e-15
  9  1.91069895079579138e-01
 10  1.99843814200031343e-07
 11  9.32258597796330415e-16
 12  5.34809966187649644e-01
 13  3.00749921886396919e-07
 14  1.77827738961188739e-15
 15 -1.75181029040431401e-03
 16  7.68106688592385001e-17
 17 -1.65681724103388433e-16
 18 -7.98967854892760482e-03
 19 -2.45091494785548793e-10
 20  1.25552536883363069e-01
 21 -8.17040934925226901e-15
 22 -3.63915170878150950e-14
 23 -4.99610664287914785e-01
 24  2.80401881474185604e-07
 25 -5.54656198214555871e-17
 26 -5.42295823631235192e-03
 27 -5.12137501499663438e-09
 28 -4.27875518820797351e-17
 29  1.03643584856891648e-15
 30 -7.79918603334970022e-03
 31  3.45218838810654229e-08
 32  4.68743544161028258e-02
 33 -5.99821197641613901e-01
 34 -3.37009782637888930e-02
 35 -3.10669999440992051e-01
 36  3.12387217497506364e-01
 37 -3.44582971150508914e-14
 38  4.68743486568280326e-02
 39 -5.99820182035504912e-01
 40 -3.37008356873642403e-02
 41 -3.10670404028727198e-01
 42 -3.12387063342551285e-01
 43  2.60486841804340631e-14
 Sym= A
 Ene=  1.43885713320804487e+00
 Spin= Alpha
 Occup=  0.00000000000000000e+00
  1  1.43921205283873529e-16
  2  2.02183321528756778e-16
  3  1.26950701104166493e-15
  4 -1.24463944587575085e-14
  5  6.77212778395812326e-14
  6  4.36185662252944469e-15
  7  6.47345694355025296e-16
  8  3.72098316509955123e-08
  9  1.21215531355033565e-14
 10 -4.65489250022450324e-15
 11 -1.34599540584824237e-07
 12  3.79436805848337393e-14
 13 -2.88557140766711408e-15
 14  1.99284245603952162e-07
 15 -1.46453520940070405e-16
 16  5.02837068351368851e-09
 17  4.63351308977832162e-03
 18 -7.62302343672786841e-16
 19  1.71802747901944451e-16
 20  1.10173152738399546e-14
 21 -3.00266519566856842e-07
 22  5.33960113536291359e-01
 23 -3.49125875148100092e-14
 24 -4.54990664039796655e-15
 25  1.44087353893581215e-08
 26 -2.30321029821606132e-16
 27  4.15753381615367913e-16
 28 -4.99592615914637689e-09
 29 -1.31167575236629357e-02
 30 -6.84589884621325632e-16
 31 -1.06059264039962985e-16
 32  2.47123367619928774e-15
 33 -3.37322329047017093e-14
 34 -4.00374897571401360e-15
 35 -2.35197520604301541e-14
 36  1.83357100096922889e-14
 37  4.30869837594249183e-01
 38  5.44983557924990631e-15
 39 -4.85681043862776025e-14
 40 -3.57905923095487862e-15
 41 -1.96181863163953325e-14
 42 -2.28742775170927204e-14
 43 -4.30870334380970998e-01
 Sym= A
 Ene=  1.55330251005242359e+00
 Spin= Alpha
 Occup=  0.00000000000000000e+00
  1  1.84229711638213011e-16
  2  6.01452471922156419e-16
  3 -1.08825586144126723e-15
  4 -8.21726772031958483e-15
  5  2.26798802103154327e-14
  6 -5.22913201409499556e-16
  7 -2.14020150385995604e-15
  8 -9.12114597068920813e-02
  9  1.00719935581740721e-15
 10  8.31536679768162995e-15
 11 -7.83363420711840480e-02
 12  1.10600991212416010e-14
 13  7.64467524956419722e-15
 14 -1.89338161430494367e-01
 15  2.51383860328847570e-17
 16 -3.86409586751996006e-03
 17  6.20605743657644890e-09
 18 -9.15567104377805691e-17
 19 -1.89371567497695833e-16
 20  1.55106685450581232e-15
 21  6.71015158135055967e-01
 22  2.28275476965151696e-07
 23 -5.18228179765388896e-15
 24  8.76423378126182102e-15
 25  6.82580163743655433e-03
 26  2.34856093499637092e-16
 27 -2.13768801569606788e-16
 28  1.41854392317035064e-02
 29 -2.85171715701791049e-08
 30  3.62396135246359301e-17
 31  3.81657723621944642e-16
 32  2.59601014534545888e-15
 33 -2.41779588200125547e-14
 34 -1.43358915873797839e-15
 35 -2.13824019582316548e-15
 36  4.41379624570191023e-15
 37  3.87495394574810414e-01
 38 -3.26131511026921969e-15
 39  8.49543538157453155e-15
 40 -5.11280673558161151e-15
 41 -9.18541709379591329e-15
 42  1.10522143425489324e-16
 43  3.87494996238012257e-01
 Sym= A
 Ene=  1.77544271039111012e+00
 Spin= Alpha
 Occup=  0.00000000000000000e+00
  1  1.90805275290153127e-08
  2  7.68703762629671491e-08
  3 -1.02898699150544822e-06
  4  3.81193222653904424e-06
  5  2.78593287043533205e-06
  6 -2.34866239885415081e-07
  7 -1.18803264599301878e-01
  8 -8.39857883817088863e-16
  9  1.92854868766868333e-06
 10  9.85906128198172027e-01
 11  6.09368243436785145e-16
 12  1.37882790895715597e-06
 13  9.65232000893849085e-01
 14 -2.54570367597946051e-16
 15  3.03808929417170565e-09
 16  2.20432866876403153e-16
 17 -5.29088195852657740e-17
 18 -1.86451045553391269e-09
 19 -1.80213947143891134e-02
 20 -1.30260770654300871e-06
 21 -7.70672356704032254e-15
 22  2.42657815289276400e-15
 23 -1.85500376134733773e-07
 24  1.25223638971096918e+00
 25 -2.43460458750796140e-16
 26 -9.48449301033272968e-08
 27 -5.87876784376161199e-02
 28  6.26788284670094906e-17
 29  1.49777367856504087e-17
 30 -1.72135810789218342e-07
 31  3.73244160263616759e-02
 32  3.65170999456308987e-01
 33 -2.20548282395164907e+00
 34  4.72997471403863834e-01
 35  4.75616824397657179e-01
 36  2.20178212969345782e-01
 37  5.91459782161953075e-16
 38 -3.65170500536096732e-01
 39  2.20547488571501171e+00
 40 -4.72996977770986760e-01
 41 -4.75615151006517245e-01
 42  2.20176252934128458e-01
 43 -1.97484576944829721e-15
 Sym= A
 Ene=  1.89687462547605157e+00
 Spin= Alpha
 Occup=  0.00000000000000000e+00
  1 -1.43320209723105368e-02
  2 -5.10164251490435247e-02
  3  4.11620849142237621e-01
  4 -8.06854366867755024e-01
  5 -1.85635155309931066e+00
  6  9.48030270381956253e-02
  7  2.79974411069023945e-08
  8 -6.25508567547372126e-16
  9 -5.51207768406818954e-01
 10 -8.46885894251909362e-07
 11  3.87879340391483440e-16
 12 -9.35140688762628791e-01
 13  6.14484130853142417e-07
 14 -5.11370220012862401e-16
 15 -1.41140028698370241e-02
 16  5.56808579048764309e-17
 17  8.41705868924675995e-17
 18 -6.15621895503895328e-04
 19 -9.08809262796474622e-09
 20  1.14938024281686224e+00
 21 -1.22488789733033205e-15
 22 -4.43317904987442819e-16
 23  2.88829496554456888e-01
 24  2.75858802384656063e-07
 25  1.26519573992564089e-16
 26  4.05339665078644773e-02
 27  2.43863041195057892e-08
 28 -3.86007189292778000e-17
 29 -2.24951353902983144e-16
 30  6.17159105008319234e-02
 31 -3.59730404338744294e-08
 32 -3.52284099801110751e-01
 33  2.11033407193287337e+00
 34 -1.80468726104316662e-01
 35 -1.76760193546364963e-01
 36 -2.78438137952946474e-01
 37 -3.47836041727578483e-16
 38 -3.52284953426040714e-01
 39  2.11033415001032232e+00
 40 -1.80469242391604417e-01
 41 -1.76760266014849843e-01
 42  2.78436636172293528e-01
 43  1.99231177166981412e-15
 Sym= A
 Ene=  2.02467270013402700e+00
 Spin= Alpha
 Occup=  0.00000000000000000e+00
  1  1.89991043775020750e-09
  2 -8.59587268371931811e-10
  3  2.54099648380229092e-07
  4 -1.46139488663853873e-06
  5  8.25439709142460369e-07
  6  1.12023575984564606e-07
  7  1.56987713436696652e-01
  8 -2.89132562828669253e-17
  9 -8.56056274287506845e-07
 10 -3.22026874437438271e-01
 11 -5.89866835094424221e-16
 12  4.96527974756735922e-07
 13  2.97182203295410563e-01
 14 -7.13983738893776640e-16
 15  1.07607520974581682e-08
 16 -2.13045329345486183e-16
 17 -2.35900207649943042e-16
 18  1.57084140242439892e-08
 19  1.69684526643531577e-02
 20 -5.16929845955208720e-07
 21 -5.18620437265702744e-16
 22  8.46960973809149760e-16
 23  4.07994470414939939e-08
 24 -5.14513688051530749e-01
 25  1.04830585904021877e-16
 26  3.42603138061810454e-08
 27  2.16013972334150942e-02
 28  4.21398292738403716e-17
 29  9.85230854873605310e-17
 30  2.67072064469241150e-08
 31 -3.10569376336845178e-02
 32 -1.23728134961662864e-01
 33  5.31736788979437325e-01
 34 -3.37084438011535814e-01
 35  4.97901309471293907e-01
 36 -6.11073017624749082e-01
 37  3.00337230333108864e-16
 38  1.23728220987519011e-01
 39 -5.31736432044408236e-01
 40  3.37084123750921560e-01
 41 -4.97902138416589868e-01
 42 -6.11072341632897809e-01
 43  2.50926970204933195e-15
 Sym= A
 Ene=  2.27806935095392982e+00
 Spin= Alpha
 Occup=  0.00000000000000000e+00
  1  1.33590963202401356e-02
  2  6.29862045064450149e-02
  3 -8.49031998379909170e-01
  4  2.73796671134685754e+00
  5  9.95283998456776391e-03
  6 -3.57102688763795528e-01
  7 -8.58707299335041434e-08
  8  8.11630087629378041e-16
  9  1.34494584887141477e+00
 10  1.72427676868885310e-06
 11  5.98615232670169646e-16
 12  1.70523459060501585e-02
 13 -4.03594460501458283e-07
 14  1.71828763271948555e-15
 15  1.26871475265149093e-04
 16 -2.47693855110520827e-16
 17 -3.73498663107811213e-16
 18  3.01191736019335238e-03
 19  5.12599313886738179e-08
 20  7.84791706005760065e-02
 21  6.79689374419156904e-15
 22  9.19353470866588875e-15
 23 -2.58253609983319143e-01
 24 -3.33339930407586911e-07
 25  4.47805699037279447e-17
 26 -7.03410833559701687e-02
 27 -3.13141521639409974e-08
 28  2.35979293775663538e-16
 29  3.46443112453548711e-16
 30 -1.53478792047413326e-01
 31  4.33891935900867245e-08
 32  6.20700006955441808e-01
 33 -1.98799086637222522e+00
 34  4.58860056643129732e-01
 35  6.81764318638816036e-01
 36  6.52775659700214672e-01
 37 -1.11436402960995211e-14
 38  6.20701069586485743e-01
 39 -1.98798966066047944e+00
 40  4.58859945400863722e-01
 41  6.81762406966912926e-01
 42 -6.52774568484132622e-01
 43  2.62615981176361343e-15
 Sym= A
 Ene=  2.34602053038783698e+00
 Spin= Alpha
 Occup=  0.00000000000000000e+00
  1  4.41176373964000573e-16
  2  1.38037799498173425e-15
  3 -9.79266003675164991e-15
  4  1.80466957800922600e-14
  5  1.30754504636011396e-15
  6 -5.99172173167649109e-15
  7 -6.52434357442618492e-15
  8 -2.72247517891672564e-01
  9  1.06993259258562835e-14
 10  2.15141283084690240e-14
 11  6.41545150926386420e-02
 12 -5.15705872985260988e-16
 13 -6.76391015754650598e-15
 14 -4.32225955339033130e-01
 15 -5.62296630338597837e-17
 16  1.76046513493250158e-02
 17 -7.61045239461407344e-08
 18  4.72800532767345874e-20
 19 -4.76540370480126366e-16
 20 -1.53605119776585654e-16
 21 -8.99404718260339076e-01
 22  3.95373695162995263e-06
 23 -3.21359771120396032e-15
 24 -2.75165032528411732e-15
 25  7.90947339840761396e-04
 26 -4.16667627038235395e-16
 27 -1.17270625457297319e-15
 28 -1.28465028538971900e-02
 29 -3.50985068345997247e-08
 30 -6.06205615689156326e-16
 31  1.61043531525058275e-16
 32  7.47000876222743741e-15
 33 -2.36904763440543702e-14
 34  6.68663035718099164e-15
 35  9.59643951536296228e-15
 36  9.93876011033918710e-15
 37  7.70875569664176585e-01
 38 -4.95630868826597675e-16
 39  4.57681780974223446e-16
 40 -2.30078684323184661e-15
 41 -1.69060171003572119e-15
 42  6.06071676574212187e-15
 43  7.70880835997887592e-01
 Sym= A
 Ene=  2.39514804778025026e+00
 Spin= Alpha
 Occup=  0.00000000000000000e+00
  1  1.71133438096339061e-16