[Molden Format]
[Atoms] (AU)
N    1    7        -0.101484417824       0.042802091602       0.068436017810
H    2    1         1.386989136774      -0.428111002546       1.186385543571
H    3    1         0.546613402813       1.354670877530      -1.175145429881
H    4    1        -0.523542491817      -1.521267127815      -0.962114115933
[GTO]
  1 0
 s    6  1.00
     4173.5110000000         0.0018348000
      627.4579000000         0.0139950000
      142.9021000000         0.0685870000
       40.2343300000         0.2322410000
       12.8202100000         0.4690700000
        4.3904370000         0.3604550000
 s    3  1.00
       11.6263580000        -0.1149610000
        2.7162800000        -0.1691180000
        0.7722180000         1.1458520000
 p    3  1.00
       11.6263580000         0.0675800000
        2.7162800000         0.3239070000
        0.7722180000         0.7408950000
 s    1  1.00
        0.2120313000         1.0000000000
 p    1  1.00
        0.2120313000         1.0000000000
 d    1  1.00
        0.8000000000         1.0000000000

  2 0
 s    3  1.00
       18.7311370000         0.0334946000
        2.8253937000         0.2347269500
        0.6401217000         0.8137573300
 s    1  1.00
        0.1612778000         1.0000000000

  3 0
 s    3  1.00
       18.7311370000         0.0334946000
        2.8253937000         0.2347269500
        0.6401217000         0.8137573300
 s    1  1.00
        0.1612778000         1.0000000000

  4 0
 s    3  1.00
       18.7311370000         0.0334946000
        2.8253937000         0.2347269500
        0.6401217000         0.8137573300
 s    1  1.00
        0.1612778000         1.0000000000

[MO]
 Sym= A
 Ene= -1.55399481133095954e+01
 Spin= Alpha
 Occup=  1.00000000000000000e+00
  1  9.94989430313320988e-01
  2  2.47189788079331708e-02
  3  1.21179117857948024e-03
  4 -5.11458956097493502e-04
  5 -8.17320055660289814e-04
  6 -1.61456932547784709e-03
  7 -7.24537536570304171e-04
  8  3.05725917527770738e-04
  9  4.88641292316445409e-04
 10 -3.37685260096511584e-03
 11 -3.47249937206858166e-03
 12 -3.44032222987647983e-03
 13 -9.82824078433721033e-05
 14 -1.57017453434542752e-04
 15  6.65253453598151046e-05
 16  2.28547625012210775e-04
 17  5.65292487804212504e-04
 18  2.28606994387066951e-04
 19  5.65213012962637105e-04
 20  2.28434797723214730e-04
 21  5.65395317744672049e-04
 Sym= A
 Ene= -1.13478356687483428e+00
 Spin= Alpha
 Occup=  1.00000000000000000e+00
  1 -1.97262388580378617e-01
  2  4.09738132837317692e-01
  3  6.96276098298386215e-02
  4 -2.94116734276665889e-02
  5 -4.69668640775029109e-02
  6  4.33486847090281235e-01
  7  3.90682131430458851e-02
  8 -1.64898069004917949e-02
  9 -2.63493664188961529e-02
 10  5.95160392093072119e-03
 11  1.29271571390877863e-02
 12  1.05749356743313865e-02
 13  7.16544104443366664e-03
 14  1.14497870238825898e-02
 15 -4.82316306166379136e-03
 16  1.35778532473934427e-01
 17  1.01704176638626152e-02
 18  1.35760777536509725e-01
 19  1.01715154796156865e-02
 20  1.35804146879965115e-01
 21  1.01685912813852669e-02
 Sym= A
 Ene= -6.21165326114489713e-01
 Spin= Alpha
 Occup=  1.00000000000000000e+00
  1  3.19355141630710933e-06
  2 -8.99133010407474826e-07
  3 -2.76775633840474322e-01
  4 -3.15161947136132825e-01
  5 -2.13185785587993726e-01
  6 -3.23604793086753931e-05
  7 -1.64718520397548973e-01
  8 -1.87556795874248727e-01
  9 -1.26865775742104975e-01
 10 -2.77614888332358596e-02
 11  2.22458169282083278e-02
 12  5.51323222103424892e-03
 13  2.03314083854208485e-03
 14 -6.05849782470555768e-03
 15  6.34600481194018823e-02
 16 -1.65435078323865559e-01
 17 -1.01168995111626012e-01
 18 -1.08014179508508446e-01
 19 -6.60566572812149727e-02
 20  2.73431806876895167e-01
 21  1.67192671258666464e-01
 Sym= A
 Ene= -6.21104388265994789e-01
 Spin= Alpha
 Occup=  1.00000000000000000e+00
  1  4.01447946201254423e-06
  2 -5.56557759586692113e-06
  3  9.59457214075864068e-02
  4 -3.12899039146731728e-01
  5  3.38014942868438972e-01
  6 -2.54936176468269041e-05
  7  5.71023696528080507e-02
  8 -1.86234405195545544e-01
  9  2.01184505948830611e-01
 10  1.81864447442555768e-02
 11 -2.45067112097606702e-03
 12 -1.57367859097742556e-02
 13 -4.30465560977235165e-02
 14  5.39874707840174856e-02
 15  2.68961292685153987e-02
 16  2.20216267807919586e-01
 17  1.34691278545874149e-01
 18 -2.53370114127815571e-01
 19 -1.54978503120285299e-01
 20  3.31479005895205653e-02
 21  2.02704893528234537e-02
 Sym= A
 Ene= -4.21751192297469935e-01
 Spin= Alpha
 Occup=  1.00000000000000000e+00
  1  6.48151786180642675e-02
  2 -1.52522104919407542e-01
  3  4.32430198448141012e-01
  4 -1.82494777503849848e-01
  5 -2.91666952352323372e-01
  6 -2.76992386381821387e-01
  7  3.81352017909509233e-01
  8 -1.60935257267906751e-01
  9 -2.57213832210780424e-01
 10  1.66653012353376352e-02
 11 -3.82834109212860972e-03
 12  3.07310339251153216e-03
 13 -2.10496979957205781e-02
 14 -3.36384715213984622e-02
 15  1.41964074132280710e-02
 16  6.66622868985019684e-02
 17  5.05355533765150869e-02
 18  6.66678302848695142e-02
 19  5.05465613622213539e-02
 20  6.66624214292619033e-02
 21  5.05256131554839699e-02
 Sym= A
 Ene=  2.19719556462929788e-01
 Spin= Alpha
 Occup=  0.00000000000000000e+00
  1 -1.25164151123220768e-01
  2  1.01606530546903703e-01
  3  1.18073080489725910e-01
  4 -4.97546765594397145e-02
  5 -7.96131242020919200e-02
  6  1.96399105705081944e+00
  7  3.94618596288979495e-01
  8 -1.66378056688208154e-01
  9 -2.66099657677422496e-01
 10 -3.88944150655583798e-02
 11 -3.94601581094490214e-02
 12 -3.92706693176064769e-02
 13 -5.73152902971234409e-04
 14 -9.21807406207938236e-04
 15  3.90897350713812234e-04
 16 -2.89912762043713357e-02
 17 -9.71951651450868148e-01
 18 -2.90041457969952218e-02
 19 -9.72014181625301621e-01
 20 -2.89769675285887311e-02
 21 -9.71861387311756975e-01
 Sym= A
 Ene=  3.21173101364093772e-01
 Spin= Alpha
 Occup=  0.00000000000000000e+00
  1  9.76415181155501605e-06
  2 -1.42649502887744014e-06
  3 -5.45213043789841006e-02
  4  2.37571545508777127e-01
  5 -2.29477446709002109e-01
  6 -2.71578538538409689e-04
  7 -1.81381196215606583e-01
  8  7.90285823886204608e-01
  9 -7.63324235531956385e-01
 10 -2.95273802095604278e-03
 11 -8.41197534735378498e-03
 12  1.13795560896809492e-02
 13  1.75029868401663964e-02
 14 -1.08401281414032477e-02
 15 -2.24641809996885483e-03
 16  3.68518629509662285e-02
 17  1.33068329949173036e+00
 18 -4.60461775027033171e-02
 19 -1.66219122905909789e+00
 20  9.17999812161331488e-03
 21  3.31833402531642063e-01
 Sym= A
 Ene=  3.21197249728378431e-01
 Spin= Alpha
 Occup=  0.00000000000000000e+00
  1  1.58279028322034639e-05
  2 -6.07514183824983323e-06
  3  2.01156469182675907e-01
  4  2.08339492862474746e-01
  5  1.67895787083258780e-01
  6 -4.10446627265880588e-04
  7  6.69221486428026036e-01
  8  6.93175242776857381e-01
  9  5.58612892575257813e-01
 10  1.39184674693769352e-02
 11 -5.13798884184327523e-03
 12 -8.75813775277575063e-03
 13  1.07271738057829660e-02
 14  1.73090115035946985e-03
 15 -1.16274237369426141e-02
 16 -3.18634403659346574e-02
 17 -1.15125570750542616e+00
 18 -1.59586305591803042e-02
 19 -5.76611343473220406e-01
 20  4.78099654975709318e-02
 21  1.72835084372084147e+00
 Sym= A
 Ene=  8.97285529639258117e-01
 Spin= Alpha
 Occup=  0.00000000000000000e+00
  1 -7.48974976495712705e-07
  2 -1.11052130786746365e-05
  3 -1.19397271307654429e-01
  4  1.78111712174528147e-01
  5 -2.88391347666835107e-01
  6  8.86586168727122035e-05
  7  3.91558962399154720e-01
  8 -5.84072315179100077e-01
  9  9.45875252524916221e-01
 10 -7.26308036712964844e-02
 11  8.21026018701343646e-02
 12 -9.46426569744868856e-03
 13  1.18713373857731161e-01
 14 -1.95218011421236820e-01
 15 -6.76590442092688121e-02
 16 -7.10900893775917475e-01
 17  7.27846718031764511e-02
 18  6.26905069246626367e-01
 19 -6.43685128279193192e-02
 20  8.40233158601375041e-02
 21 -8.53691002611439362e-03
 Sym= A
 Ene=  8.97309782335605655e-01
 Spin= Alpha
 Occup=  0.00000000000000000e+00
  1 -1.04663916780427395e-05
  2 -5.86969247395786214e-05
  3  1.89140730899051618e-01
  4  2.88774274687789323e-01
  5  1.00073674171055282e-01
  6  3.89217166012919744e-04
  7 -6.20700790236358602e-01
  8 -9.47172563445298321e-01
  9 -3.28180600882978180e-01
 10  2.92013028295804548e-02
 11 -5.48468278255377847e-02
 12  2.56443543420352763e-02
 13 -6.68356177189065453e-02
 14 -2.13187996615266280e-02
 15 -2.58870799023086406e-01
 16  3.13359017811279006e-01
 17 -3.19485310657264474e-02
 18  4.58920651670750912e-01
 19 -4.69833400402165924e-02
 20 -7.72369766810058089e-01
 21  7.85877512429308811e-02
 Sym= A
 Ene=  9.70158307654306995e-01
 Spin= Alpha
 Occup=  0.00000000000000000e+00
  1  1.62983298628181748e-02
  2 -2.62071460614942742e-01
  3  7.49002323588297103e-01
  4 -3.16017416101864568e-01
  5 -5.05154077291794290e-01
  6  1.96560483791825252e-01
  7 -8.44622404885825295e-01
  8  3.56212349062439204e-01
  9  5.69578082887666648e-01
 10 -7.43342458010665813e-02
 11 -6.65410552892905377e-02
 12 -6.91562694462026645e-02
 13  8.00856830597347635e-03
 14  1.27962481584633532e-02
 15 -5.47634101993688116e-03
 16  1.05499845346350415e-01
 17  3.94063145880685153e-02
 18  1.05580622755087547e-01
 19  3.93817914231515132e-02
 20  1.05324124307600769e-01
 21  3.94295474938487905e-02
 Sym= A
 Ene=  1.20546850478547629e+00
 Spin= Alpha
 Occup=  0.00000000000000000e+00
  1 -5.72691273559740449e-02
  2  7.56536965087309610e-01
  3  2.76625612155253386e-01
  4 -1.12256676351003698e-01
  5 -1.85452036208868465e-01
  6 -1.17567390140669858e+00
  7 -9.34658841168598681e-02
  8  3.35659374228116855e-02
  9  6.16023255457313068e-02
 10  1.81346083188381579e-01
 11  5.00919780902496711e-02
 12  9.41931735640907791e-02
 13 -1.34918532491980353e-01
 14 -2.15397959211044876e-01
 15  9.18843620283376350e-02
 16 -6.74812238438572853e-01
 17  5.81023176627822768e-01
 18 -6.76378200682632547e-01
 19  5.84992201243694332e-01
 20 -6.72607749274994560e-01
 21  5.75624405475094192e-01
 Sym= A
 Ene=  1.21926427367356127e+00
 Spin= Alpha
 Occup=  0.00000000000000000e+00
  1 -1.30135967014880877e-04
  2  1.75546338545448503e-03
  3  1.81775983649300144e-01
  4 -7.12960461430002357e-01
  5  7.14082292567243648e-01
  6 -2.75761810712257934e-03
  7 -2.34964366322547025e-01
  8  9.23710035110555272e-01
  9 -9.25829065737298507e-01
 10 -5.23907315862703407e-02
 11  5.20599216453833807e-02
 12  1.08285861015107085e-03
 13  8.43873228173090129e-02
 14 -1.65694149850620726e-01
 15 -1.13966217399310371e-01
 16 -4.22553603460721627e-01
 17  1.03466541680601920e+00
 18  5.10002053184085646e-01
 19 -1.25419465719795653e+00
 20 -9.20780645304149076e-02
 21  2.23540637598032582e-01
 Sym= A
 Ene=  1.21934564890754804e+00
 Spin= Alpha
 Occup=  0.00000000000000000e+00
  1 -1.92209287379534248e-04
  2  2.54746339737048398e-03
  3 -6.11205956124503902e-01
  4 -6.55124070482163257e-01
  5 -4.98513095506672332e-01
  6 -3.97174185263167012e-03
  7  7.92957031757735020e-01
  8  8.48589776567491239e-01
  9  6.45409383291737471e-01
 10  4.40087440925817988e-02
 11 -6.41662313457555950e-02
 12  2.12453198996127995e-02
 13 -7.90318297180929580e-02
 14  2.69009982063166328e-02
 15 -1.96312677678109809e-01
 16  3.45406727971941774e-01
 17 -8.51290731437416626e-01
 18  1.88562527708071109e-01
 19 -4.66366652583891372e-01
 20 -5.40762363323579742e-01
 21  1.32348394078024012e+00
 Sym= A
 Ene=  1.37135561199793066e+00
 Spin= Alpha
 Occup=  0.00000000000000000e+00
  1  9.71234061107643237e-02
  2  1.49458653920669082e+00
  3  1.24616987003584312e-01
  4 -5.25492141442234009e-02
  5 -8.40401394679993058e-02
  6 -4.07947676696131012e+00
  7 -6.57088310285601884e-01
  8  2.77278923553284373e-01
  9  4.43132067838789723e-01
 10  2.05252372488843399e-01
 11  3.81189309801246212e-01
 12  3.21917809317832315e-01
 13  1.80789884392706129e-01
 14  2.88851591825757426e-01
 15 -1.21945746687688927e-01
 16  3.79721786869254785e-01
 17  7.63055212098164293e-01
 18  3.79744825958229837e-01
 19  7.62919697786428874e-01
 20  3.79593945750872963e-01
 21  7.63285232676383041e-01
 Sym= A
 Ene=  1.96660344327087433e+00
 Spin= Alpha
 Occup=  0.00000000000000000e+00
  1 -3.80576561743049534e-06
  2 -2.23848843823557437e-05
  3 -1.14839699664723363e-02
  4 -1.53818035093022040e-02
  5 -7.40654363771220490e-03
  6  9.15634003357218524e-05
  7 -1.90540088405830345e-02
  8 -2.55455869436954155e-02
  9 -1.23079943527308212e-02
 10  7.12570900225745985e-01
 11 -2.07485043291182975e-01
 12 -5.05098905424297251e-01
 13  1.17056106819804961e+00
 14 -2.20477618310040563e-02
 15  1.17753221396202298e-01
 16  1.63686515930672807e-02
 17  2.44844885577547196e-04
 18  1.66229670211957628e-02
 19  2.46895703802266101e-04
 20 -3.30794568180937804e-02
 21 -5.26059968812570369e-04
 Sym= A
 Ene=  1.96661594202512902e+00
 Spin= Alpha
 Occup=  0.00000000000000000e+00
  1  7.17434571627807848e-07
  2  3.26958045973237005e-06
  3 -5.67509118862784961e-03
  4  1.18629973825056471e-02
  5 -1.58316723929779433e-02
  6 -1.64942523718611326e-05
  7 -9.42116581629159205e-03
  8  1.96926250208183801e-02
  9 -2.62818736454701815e-02
 10  1.16461999247301384e-01
 11  7.33429671810541195e-01
 12 -8.49889799206971164e-01
 13 -5.81501882290401895e-01
 14  1.67255417290280775e-02
 15 -3.32286264795457364e-01
 16  2.87114939464518867e-02
 17  4.42515485740792682e-04
 18 -2.85578207378732393e-02
 19 -4.35244560723372623e-04
 20 -1.36359602663057276e-04
 21 -1.28542482335012229e-06
 Sym= A
 Ene=  2.26216956133633662e+00
 Spin= Alpha
 Occup=  0.00000000000000000e+00
  1 -5.75475544699114230e-02
  2 -4.32490581934410701e-01
  3  2.27819445414093949e-02
  4 -9.67509791844122814e-03
  5 -1.53862485259777561e-02
  6  1.51052280395099947e+00
  7  3.48336264905057869e-01
  8 -1.46911992411040276e-01
  9 -2.34889575060529016e-01
 10 -4.82235553106826642e-01
 11  2.75706438248633945e-01
 12  2.03677529149910511e-02
 13  7.78707138008742028e-01
 14  1.24419992088542952e+00
 15 -5.25252362921203475e-01
 16 -4.80489735426937736e-01
 17 -1.95779878348136233e-01
 18 -4.80525583845443527e-01
 19 -1.95738613471722195e-01
 20 -4.80418529641360781e-01
 21 -1.95817101981534319e-01
 Sym= A
 Ene=  2.75144612428370339e+00
 Spin= Alpha
 Occup=  0.00000000000000000e+00
  1  1.20279988131169402e-05
  2 -2.12064178740727773e-06
  3 -1.24127660600568523e-02
  4  5.85884941324998840e-02
  5 -5.50103607606840517e-02
  6 -2.25621414987342464e-04
  7 -9.92331296101025689e-02
  8  4.69017281601927960e-01
  9 -4.40471148679886959e-01
 10 -4.37911626967862844e-01
 11  3.19845431189402618e-01
 12  1.18095516718133092e-01
 13  8.23291570267198791e-01
 14 -1.42675758959268650e+00
 15 -1.01004623213959888e+00
 16  6.90632838858061704e-01
 17 -2.37475124222453066e-02
 18 -8.81094426367418748e-01
 19  3.03564789816636975e-02
 20  1.90723898459012109e-01
 21 -6.51324964971690054e-03
 Sym= A
 Ene=  2.75156966270077996e+00
 Spin= Alpha
 Occup=  0.00000000000000000e+00
  1  1.80233779476760109e-05
  2 -1.71075659457623076e-05
  3  4.91187117705498000e-02
  4  4.96740861039736206e-02
  5  4.18232745405768894e-02
  6 -3.04554479731394053e-04
  7  3.93070456574759364e-01
  8  3.97262196658482614e-01
  9  3.34374302701590465e-01
 10  4.97669166673358421e-01
 11 -5.83235767314688180e-01
 12  8.56160914514860621e-02
 13 -5.65835984289753569e-01
 14  2.95179728929703122e-01
 15 -1.65905905269759613e+00
 16 -6.18785777147029314e-01
 17  2.12632805576932968e-02
 18 -2.88551111131675031e-01
 19  9.91604944970229420e-03
 20  9.07723501859230786e-01
 21 -3.10666534183167663e-02
 Sym= A
 Ene=  4.08558904020646274e+00
 Spin= Alpha
 Occup=  0.00000000000000000e+00
  1 -4.63640536251630930e-01
  2  1.20072542661317372e+00
  3 -7.64772940325972317e-02
  4  3.23019336874252674e-02
  5  5.15873217136406242e-02
  6  3.12399059709591054e+00
  7  2.46582221691962644e-01
  8 -1.04052000261980832e-01
  9 -1.66295905056765003e-01
 10 -1.50981637183862283e+00
 11 -1.50075518663843033e+00
 12 -1.50379410651722423e+00
 13  9.33154402724682176e-03
 14  1.48937188064630199e-02
 15 -6.38774302020556073e-03
 16  1.41008081270606517e-01
 17 -5.50010726021970542e-01
 18  1.40960587522813069e-01
 19 -5.49947841630091139e-01
 20  1.41104338574563809e-01
 21 -5.50117820316145756e-01
 Sym= A
 Ene= -1.55399481133095954e+01
 Spin= Beta
 Occup=  1.00000000000000000e+00
  1  9.94989430313320988e-01
  2  2.47189788079331708e-02
  3  1.21179117857948024e-03
  4 -5.11458956097493502e-04
  5 -8.17320055660289814e-04
  6 -1.61456932547784709e-03
  7 -7.24537536570304171e-04
  8  3.05725917527770738e-04
  9  4.88641292316445409e-04
 10 -3.37685260096511584e-03
 11 -3.47249937206858166e-03
 12 -3.44032222987647983e-03
 13 -9.82824078433721033e-05
 14 -1.57017453434542752e-04
 15  6.65253453598151046e-05
 16  2.28547625012210775e-04
 17  5.65292487804212504e-04
 18  2.28606994387066951e-04
 19  5.65213012962637105e-04
 20  2.28434797723214730e-04
 21  5.65395317744672049e-04
 Sym= A
 Ene= -1.13478356687483428e+00
 Spin= Beta
 Occup=  1.00000000000000000e+00
  1 -1.97262388580378617e-01
  2  4.09738132837317692e-01
  3  6.96276098298386215e-02
  4 -2.94116734276665889e-02
  5 -4.69668640775029109e-02
  6  4.33486847090281235e-01
  7  3.90682131430458851e-02
  8 -1.64898069004917949e-02
  9 -2.63493664188961529e-02
 10  5.95160392093072119e-03
 11  1.29271571390877863e-02
 12  1.05749356743313865e-02
 13  7.16544104443366664e-03
 14  1.14497870238825898e-02
 15 -4.82316306166379136e-03
 16  1.35778532473934427e-01
 17  1.01704176638626152e-02
 18  1.35760777536509725e-01
 19  1.01715154796156865e-02
 20  1.35804146879965115e-01
 21  1.01685912813852669e-02
 Sym= A
 Ene= -6.21165326114489713e-01
 Spin= Beta
 Occup=  1.00000000000000000e+00
  1  3.19355141630710933e-06
  2 -8.99133010407474826e-07
  3 -2.76775633840474322e-01
  4 -3.15161947136132825e-01
  5 -2.13185785587993726e-01
  6 -3.23604793086753931e-05
  7 -1.64718520397548973e-01
  8 -1.87556795874248727e-01
  9 -1.26865775742104975e-01
 10 -2.77614888332358596e-02
 11  2.22458169282083278e-02
 12  5.51323222103424892e-03
 13  2.03314083854208485e-03
 14 -6.05849782470555768e-03
 15  6.34600481194018823e-02
 16 -1.65435078323865559e-01
 17 -1.01168995111626012e-01
 18 -1.08014179508508446e-01
 19 -6.60566572812149727e-02
 20  2.73431806876895167e-01
 21  1.67192671258666464e-01
 Sym= A
 Ene= -6.21104388265994789e-01
 Spin= Beta
 Occup=  1.00000000000000000e+00
  1  4.01447946201254423e-06
  2 -5.56557759586692113e-06
  3  9.59457214075864068e-02
  4 -3.12899039146731728e-01
  5  3.38014942868438972e-01
  6 -2.54936176468269041e-05
  7  5.71023696528080507e-02
  8 -1.86234405195545544e-01
  9  2.01184505948830611e-01
 10  1.81864447442555768e-02
 11 -2.45067112097606702e-03
 12 -1.57367859097742556e-02
 13 -4.30465560977235165e-02
 14  5.39874707840174856e-02
 15  2.68961292685153987e-02
 16  2.20216267807919586e-01
 17  1.34691278545874149e-01
 18 -2.53370114127815571e-01
 19 -1.54978503120285299e-01
 20  3.31479005895205653e-02
 21  2.02704893528234537e-02
 Sym= A
 Ene= -4.21751192297469935e-01
 Spin= Beta
 Occup=  1.00000000000000000e+00
  1  6.48151786180642675e-02
  2 -1.52522104919407542e-01
  3  4.32430198448141012e-01
  4 -1.82494777503849848e-01
  5 -2.91666952352323372e-01
  6 -2.76992386381821387e-01
  7  3.81352017909509233e-01
  8 -1.60935257267906751e-01
  9 -2.57213832210780424e-01
 10  1.66653012353376352e-02
 11 -3.82834109212860972e-03
 12  3.07310339251153216e-03
 13 -2.10496979957205781e-02
 14 -3.36384715213984622e-02
 15  1.41964074132280710e-02
 16  6.66622868985019684e-02
 17  5.05355533765150869e-02
 18  6.66678302848695142e-02
 19  5.05465613622213539e-02
 20  6.66624214292619033e-02
 21  5.05256131554839699e-02
 Sym= A
 Ene=  2.19719556462929788e-01
 Spin= Beta
 Occup=  0.00000000000000000e+00
  1 -1.25164151123220768e-01
  2  1.01606530546903703e-01
  3  1.18073080489725910e-01
  4 -4.97546765594397145e-02
  5 -7.96131242020919200e-02
  6  1.96399105705081944e+00
  7  3.94618596288979495e-01
  8 -1.66378056688208154e-01
  9 -2.66099657677422496e-01
 10 -3.88944150655583798e-02
 11 -3.94601581094490214e-02
 12 -3.92706693176064769e-02
 13 -5.73152902971234409e-04
 14 -9.21807406207938236e-04
 15  3.90897350713812234e-04
 16 -2.89912762043713357e-02
 17 -9.71951651450868148e-01
 18 -2.90041457969952218e-02
 19 -9.72014181625301621e-01
 20 -2.89769675285887311e-02
 21 -9.71861387311756975e-01
 Sym= A
 Ene=  3.21173101364093772e-01
 Spin= Beta
 Occup=  0.00000000000000000e+00
  1  9.76415181155501605e-06
  2 -1.42649502887744014e-06
  3 -5.45213043789841006e-02
  4  2.37571545508777127e-01
  5 -2.29477446709002109e-01
  6 -2.71578538538409689e-04
  7 -1.81381196215606583e-01
  8  7.90285823886204608e-01
  9 -7.63324235531956385e-01
 10 -2.95273802095604278e-03
 11 -8.41197534735378498e-03
 12  1.13795560896809492e-02
 13  1.75029868401663964e-02
 14 -1.08401281414032477e-02
 15 -2.24641809996885483e-03
 16  3.68518629509662285e-02
 17  1.33068329949173036e+00
 18 -4.60461775027033171e-02
 19 -1.66219122905909789e+00
 20  9.17999812161331488e-03
 21  3.31833402531642063e-01
 Sym= A
 Ene=  3.21197249728378431e-01
 Spin= Beta
 Occup=  0.00000000000000000e+00
  1  1.58279028322034639e-05
  2 -6.07514183824983323e-06
  3  2.01156469182675907e-01
  4  2.08339492862474746e-01
  5  1.67895787083258780e-01
  6 -4.10446627265880588e-04
  7  6.69221486428026036e-01
  8  6.93175242776857381e-01
  9  5.58612892575257813e-01
 10  1.39184674693769352e-02
 11 -5.13798884184327523e-03
 12 -8.75813775277575063e-03
 13  1.07271738057829660e-02
 14  1.73090115035946985e-03
 15 -1.16274237369426141e-02
 16 -3.18634403659346574e-02
 17 -1.15125570750542616e+00
 18 -1.59586305591803042e-02
 19 -5.76611343473220406e-01
 20  4.78099654975709318e-02
 21  1.72835084372084147e+00
 Sym= A
 Ene=  8.97285529639258117e-01
 Spin= Beta
 Occup=  0.00000000000000000e+00
  1 -7.48974976495712705e-07
  2 -1.11052130786746365e-05
  3 -1.19397271307654429e-01
  4  1.78111712174528147e-01
  5 -2.88391347666835107e-01
  6  8.86586168727122035e-05
  7  3.91558962399154720e-01
  8 -5.84072315179100077e-01
  9  9.45875252524916221e-01
 10 -7.26308036712964844e-02
 11  8.21026018701343646e-02
 12 -9.46426569744868856e-03
 13  1.18713373857731161e-01
 14 -1.95218011421236820e-01
 15 -6.76590442092688121e-02
 16 -7.10900893775917475e-01
 17  7.27846718031764511e-02
 18  6.26905069246626367e-01
 19 -6.43685128279193192e-02
 20  8.40233158601375041e-02
 21 -8.53691002611439362e-03
 Sym= A
 Ene=  8.97309782335605655e-01
 Spin= Beta
 Occup=  0.00000000000000000e+00
  1 -1.04663916780427395e-05
  2 -5.86969247395786214e-05
  3  1.89140730899051618e-01
  4  2.88774274687789323e-01
  5  1.00073674171055282e-01
  6  3.89217166012919744e-04
  7 -6.20700790236358602e-01
  8 -9.47172563445298321e-01
  9 -3.28180600882978180e-01
 10  2.92013028295804548e-02
 11 -5.48468278255377847e-02
 12  2.56443543420352763e-02
 13 -6.68356177189065453e-02
 14 -2.13187996615266280e-02
 15 -2.58870799023086406e-01
 16  3.13359017811279006e-01
 17 -3.19485310657264474e-02
 18  4.58920651670750912e-01
 19 -4.69833400402165924e-02
 20 -7.72369766810058089e-01
 21  7.85877512429308811e-02
 Sym= A
 Ene=  9.70158307654306995e-01
 Spin= Beta
 Occup=  0.00000000000000000e+00
  1  1.62983298628181748e-02
  2 -2.62071460614942742e-01
  3  7.49002323588297103e-01
  4 -3.16017416101864568e-01
  5 -5.05154077291794290e-01
  6  1.96560483791825252e-01
  7 -8.44622404885825295e-01
  8  3.56212349062439204e-01
  9  5.69578082887666648e-01
 10 -7.43342458010665813e-02
 11 -6.65410552892905377e-02
 12 -6.91562694462026645e-02
 13  8.00856830597347635e-03
 14  1.27962481584633532e-02
 15 -5.47634101993688116e-03
 16  1.05499845346350415e-01
 17  3.94063145880685153e-02
 18  1.05580622755087547e-01
 19  3.93817914231515132e-02
 20  1.05324124307600769e-01
 21  3.94295474938487905e-02
 Sym= A
 Ene=  1.20546850478547629e+00
 Spin= Beta
 Occup=  0.00000000000000000e+00
  1 -5.72691273559740449e-02
  2  7.56536965087309610e-01
  3  2.76625612155253386e-01
  4 -1.12256676351003698e-01
  5 -1.85452036208868465e-01
  6 -1.17567390140669858e+00
  7 -9.34658841168598681e-02
  8  3.35659374228116855e-02
  9  6.16023255457313068e-02
 10  1.81346083188381579e-01
 11  5.00919780902496711e-02
 12  9.41931735640907791e-02
 13 -1.34918532491980353e-01
 14 -2.15397959211044876e-01
 15  9.18843620283376350e-02
 16 -6.74812238438572853e-01
 17  5.81023176627822768e-01
 18 -6.76378200682632547e-01
 19  5.84992201243694332e-01
 20 -6.72607749274994560e-01
 21  5.75624405475094192e-01
 Sym= A
 Ene=  1.21926427367356127e+00
 Spin= Beta
 Occup=  0.00000000000000000e+00
  1 -1.30135967014880877e-04
  2  1.75546338545448503e-03
  3  1.81775983649300144e-01
  4 -7.12960461430002357e-01
  5  7.14082292567243648e-01
  6 -2.75761810712257934e-03
  7 -2.34964366322547025e-01
  8  9.23710035110555272e-01
  9 -9.25829065737298507e-01
 10 -5.23907315862703407e-02
 11  5.20599216453833807e-02
 12  1.08285861015107085e-03
 13  8.43873228173090129e-02
 14 -1.65694149850620726e-01
 15 -1.13966217399310371e-01
 16 -4.22553603460721627e-01
 17  1.03466541680601920e+00
 18  5.10002053184085646e-01
 19 -1.25419465719795653e+00
 20 -9.20780645304149076e-02
 21  2.23540637598032582e-01
 Sym= A
 Ene=  1.21934564890754804e+00
 Spin= Beta
 Occup=  0.00000000000000000e+00
  1 -1.92209287379534248e-04
  2  2.54746339737048398e-03
  3 -6.11205956124503902e-01
  4 -6.55124070482163257e-01
  5 -4.98513095506672332e-01
  6 -3.97174185263167012e-03
  7  7.92957031757735020e-01
  8  8.48589776567491239e-01
  9  6.45409383291737471e-01
 10  4.40087440925817988e-02
 11 -6.41662313457555950e-02
 12  2.12453198996127995e-02
 13 -7.90318297180929580e-02
 14  2.69009982063166328e-02
 15 -1.96312677678109809e-01
 16  3.45406727971941774e-01
 17 -8.51290731437416626e-01
 18  1.88562527708071109e-01
 19 -4.66366652583891372e-01
 20 -5.40762363323579742e-01
 21  1.32348394078024012e+00
 Sym= A
 Ene=  1.37135561199793066e+00
 Spin= Beta
 Occup=  0.00000000000000000e+00
  1  9.71234061107643237e-02
  2  1.49458653920669082e+00
  3  1.24616987003584312e-01
  4 -5.25492141442234009e-02
  5 -8.40401394679993058e-02
  6 -4.07947676696131012e+00
  7 -6.57088310285601884e-01
  8  2.77278923553284373e-01
  9  4.43132067838789723e-01
 10  2.05252372488843399e-01
 11  3.81189309801246212e-01
 12  3.21917809317832315e-01
 13  1.80789884392706129e-01
 14  2.88851591825757426e-01
 15 -1.21945746687688927e-01
 16  3.79721786869254785e-01
 17  7.63055212098164293e-01
 18  3.79744825958229837e-01
 19  7.62919697786428874e-01
 20  3.79593945750872963e-01
 21  7.63285232676383041e-01
 Sym= A
 Ene=  1.96660344327087433e+00
 Spin= Beta
 Occup=  0.00000000000000000e+00
  1 -3.80576561743049534e-06
  2 -2.23848843823557437e-05
  3 -1.14839699664723363e-02
  4 -1.53818035093022040e-02
  5 -7.40654363771220490e-03
  6  9.15634003357218524e-05
  7 -1.90540088405830345e-02
  8 -2.55455869436954155e-02
  9 -1.23079943527308212e-02
 10  7.12570900225745985e-01
 11 -2.07485043291182975e-01
 12 -5.05098905424297251e-01
 13  1.17056106819804961e+00
 14 -2.20477618310040563e-02
 15  1.17753221396202298e-01
 16  1.63686515930672807e-02
 17  2.44844885577547196e-04
 18  1.66229670211957628e-02
 19  2.46895703802266101e-04
 20 -3.30794568180937804e-02
 21 -5.26059968812570369e-04
 Sym= A
 Ene=  1.96661594202512902e+00
 Spin= Beta
 Occup=  0.00000000000000000e+00
  1  7.17434571627807848e-07
  2  3.26958045973237005e-06
  3 -5.67509118862784961e-03
  4  1.18629973825056471e-02
  5 -1.58316723929779433e-02
  6 -1.64942523718611326e-05
  7 -9.42116581629159205e-03
  8  1.96926250208183801e-02
  9 -2.62818736454701815e-02
 10  1.16461999247301384e-01
 11  7.33429671810541195e-01
 12 -8.49889799206971164e-01
 13 -5.81501882290401895e-01
 14  1.67255417290280775e-02
 15 -3.32286264795457364e-01
 16  2.87114939464518867e-02
 17  4.42515485740792682e-04
 18 -2.85578207378732393e-02
 19 -4.35244560723372623e-04
 20 -1.36359602663057276e-04
 21 -1.28542482335012229e-06
 Sym= A
 Ene=  2.26216956133633662e+00
 Spin= Beta
 Occup=  0.00000000000000000e+00
  1 -5.75475544699114230e-02
  2 -4.32490581934410701e-01
  3  2.27819445414093949e-02
  4 -9.67509791844122814e-03
  5 -1.53862485259777561e-02
  6  1.51052280395099947e+00
  7  3.48336264905057869e-01
  8 -1.46911992411040276e-01
  9 -2.34889575060529016e-01
 10 -4.82235553106826642e-01
 11  2.75706438248633945e-01
 12  2.03677529149910511e-02
 13  7.78707138008742028e-01
 14  1.24419992088542952e+00
 15 -5.25252362921203475e-01
 16 -4.80489735426937736e-01
 17 -1.95779878348136233e-01
 18 -4.80525583845443527e-01
 19 -1.95738613471722195e-01
 20 -4.80418529641360781e-01
 21 -1.95817101981534319e-01
 Sym= A
 Ene=  2.75144612428370339e+00
 Spin= Beta
 Occup=  0.00000000000000000e+00
  1  1.20279988131169402e-05
  2 -2.12064178740727773e-06
  3 -1.24127660600568523e-02
  4  5.85884941324998840e-02
  5 -5.50103607606840517e-02
  6 -2.25621414987342464e-04
  7 -9.92331296101025689e-02
  8  4.69017281601927960e-01
  9 -4.40471148679886959e-01
 10 -4.37911626967862844e-01
 11  3.19845431189402618e-01
 12  1.18095516718133092e-01
 13  8.23291570267198791e-01
 14 -1.42675758959268650e+00
 15 -1.01004623213959888e+00
 16  6.90632838858061704e-01
 17 -2.37475124222453066e-02
 18 -8.81094426367418748e-01
 19  3.03564789816636975e-02
 20  1.90723898459012109e-01
 21 -6.51324964971690054e-03
 Sym= A
 Ene=  2.75156966270077996e+00
 Spin= Beta
 Occup=  0.00000000000000000e+00
  1  1.80233779476760109e-05
  2 -1.71075659457623076e-05
  3  4.91187117705498000e-02
  4  4.96740861039736206e-02
  5  4.18232745405768894e-02
  6 -3.04554479731394053e-04
  7  3.93070456574759364e-01
  8  3.97262196658482614e-01
  9  3.34374302701590465e-01
 10  4.97669166673358421e-01
 11 -5.83235767314688180e-01
 12  8.56160914514860621e-02
 13 -5.65835984289753569e-01
 14  2.95179728929703122e-01
 15 -1.65905905269759613e+00
 16 -6.18785777147029314e-01
 17  2.12632805576932968e-02