[Molden Format]
[Atoms] (AU)
O    1    8        -0.123672762329       0.000000046922       0.000000000000
H    2    1         0.981388135752       1.445736960150       0.000000000000
H    3    1         0.981388349216      -1.445737704840       0.000000000000
[GTO]
  1 0
 s    6  1.00
    27032.3826310000         0.0002172630
     4052.3871392000         0.0016838662
      922.3272271000         0.0087395616
      261.2407098900         0.0352399688
       85.3546413510         0.1115351912
       31.0350352450         0.2558895396
 s    2  1.00
       12.2608607280         0.3976873090
        4.9987076005         0.2462784943
 s    1  1.00
        1.1703108158         1.0000000000
 s    1  1.00
        0.4647474099         1.0000000000
 s    1  1.00
        0.1850453636         1.0000000000
 p    4  1.00
       63.2749548010         0.0060685103
       14.6270493790         0.0419125758
        4.4501223456         0.1615384109
        1.5275799647         0.3570695131
 p    1  1.00
        0.5293511794         1.0000000000
 p    1  1.00
        0.1747842127         1.0000000000
 d    1  1.00
        2.3140000000         1.0000000000
 d    1  1.00
        0.6450000000         1.0000000000
 f    1  1.00
        1.4280000000         1.0000000000

  2 0
 s    3  1.00
       34.0613410000         0.0060251978
        5.1235746000         0.0450210940
        1.1646626000         0.2018972600
 s    1  1.00
        0.3272304100         1.0000000000
 s    1  1.00
        0.1030724100         1.0000000000
 p    1  1.00
        0.8000000000         1.0000000000

  3 0
 s    3  1.00
       34.0613410000         0.0060251978
        5.1235746000         0.0450210940
        1.1646626000         0.2018972600
 s    1  1.00
        0.3272304100         1.0000000000
 s    1  1.00
        0.1030724100         1.0000000000
 p    1  1.00
        0.8000000000         1.0000000000

[5D]
[9G]

[MO]
 Sym= A
 Ene= -1.91986797138662553e+01
 Spin= Alpha
 Occup=  1.00000000000000000e+00
  1  4.35290020865317151e-01
  2  6.39525151742288633e-01
  3  3.42782452026084497e-02
  4 -2.22862739726628380e-02
  5  9.13812043333104250e-03
  6  1.79263123747362284e-03
  7 -9.97339847892677458e-11
  8  1.08860312023554996e-16
  9 -2.97060462303301012e-03
 10  1.00213435164796947e-09
 11 -1.56666509314473121e-16
 12  1.10427756616515303e-03
 13  6.43528572117922121e-10
 14  8.10009927880917578e-20
 15 -1.91305173512419993e-04
 16  4.95927875318479410e-17
 17  5.12859171116126401e-17
 18 -7.29211126053346453e-05
 19 -2.05872316513086319e-11
 20  9.04176153898050470e-04
 21 -9.53260392763488009e-17
 22  2.45720812254798017e-17
 23  3.64356588284135469e-04
 24  7.64850470288436562e-10
 25  1.27854963803288466e-17
 26  1.81278610464385417e-04
 27 -1.76729382669570871e-10
 28 -9.21494310388626355e-19
 29 -1.13887426127575574e-16
 30  3.38177873946336467e-04
 31 -2.62468454254422157e-11
 32  8.61974241601612791e-04
 33  1.61481809361783773e-03
 34 -1.88959494128559035e-03
 35 -6.36802647016444442e-04
 36 -9.06173461122496333e-04
 37  6.63081547303872907e-18
 38  8.61974026547509360e-04
 39  1.61481905449598518e-03
 40 -1.88959305471914107e-03
 41 -6.36803859749646714e-04
 42  9.06175196138475636e-04
 43  2.88374789866786455e-16
 Sym= A
 Ene= -1.09238999751090127e+00
 Spin= Alpha
 Occup=  1.00000000000000000e+00
  1  9.76246281331379639e-02
  2  2.29173864387552689e-01
  3 -3.35504505383660778e-01
  4 -4.30245310051609875e-01
  5 -1.62729237343511357e-01
  6 -8.48049991181967222e-02
  7 -6.88668012482613433e-08
  8 -6.99704892536913284e-16
  9 -7.08529614545622827e-02
 10 -2.15154666343253527e-08
 11 -2.59710792572492066e-16
 12 -1.11232803142530898e-02
 13 -2.45917368462289795e-09
 14 -2.72936758720315603e-16
 15  4.50100907978078640e-03
 16  1.22371810738841675e-16
 17 -1.88894339238996984e-16
 18  1.12750216917545778e-03
 19 -7.29714581931506857e-09
 20  1.12380184841040561e-02
 21 -1.65791038098093915e-17
 22  1.03424706577929247e-16
 23  1.29968155056635359e-03
 24  3.62650691720675133e-09
 25 -7.66922967763873089e-17
 26  2.69364439317982922e-03
 27  1.44246757898748343e-09
 28 -5.55345078686946190e-17
 29 -7.31248597603313175e-17
 30  4.10740662525837553e-03
 31 -1.92737850548237149e-09
 32 -9.33599717443502064e-02
 33 -7.02307017408840412e-02
 34 -8.87725867542874143e-03
 35  8.38990420831436240e-03
 36  1.51243105429306850e-02
 37 -2.23128079640879395e-16
 38 -9.33598567622169195e-02
 39 -7.02306305078492787e-02
 40 -8.87725375794859439e-03
 41  8.38988442508937018e-03
 42 -1.51242927689300144e-02
 43  8.53127305976678197e-17
 Sym= A
 Ene= -6.03047011220884888e-01
 Spin= Alpha
 Occup=  1.00000000000000000e+00
  1  2.07528682069978933e-08
  2  4.86693819847456248e-08
  3 -6.10478517523850959e-08
  4 -1.58800977577161040e-07
  5 -1.37703735975453510e-07
  6  1.17471073901935856e-07
  7  3.85883286272359627e-01
  8 -1.84147017807629473e-15
  9  5.61980263565975022e-08
 10  2.94265721010310621e-01
 11 -1.20827472246806966e-14
 12  3.15546805418747738e-08
 13  1.24781480215764684e-01
 14  1.58593589403565809e-14
 15 -3.64192448598574307e-09
 16 -2.33823999173435183e-16
 17 -4.51667322345959072e-17
 18  7.25498688040834282e-11
 19  1.24480609007304732e-02
 20  4.26080160145358268e-09
 21 -1.69211166318421041e-16
 22  7.10413130528038709e-17
 23  8.10267656750866911e-09
 24  2.44309927045677708e-02
 25 -5.91639463583021229e-17
 26 -1.08443385942459825e-09
 27 -5.01057653781732896e-03
 28 -3.54448370434068833e-17
 29 -8.18196275363747553e-17
 30 -1.18376809291433298e-09
 31 -2.34010058937623761e-04
 32  1.47192566975599543e-01
 33  1.85478381329461511e-01
 34  6.61426500085016827e-02
 35 -1.81881078708441210e-02
 36 -9.83795953236282078e-03
 37  5.62012361675274129e-16
 38 -1.47192530237491598e-01
 39 -1.85478367096170910e-01
 40 -6.61426821267597498e-02
 41  1.81880981296635470e-02
 42 -9.83795652222915762e-03
 43  6.91626180775622790e-16
 Sym= A
 Ene= -4.58710817957571571e-01
 Spin= Alpha
 Occup=  1.00000000000000000e+00
  1 -3.65157924108295423e-02
  2 -8.71173387029099688e-02
  3  1.36412348253734411e-01
  4  1.92693361672569535e-01
  5  2.25100151700423884e-01
  6 -4.18075867259769030e-01
  7  8.11468939658710089e-08
  8  8.70347005750413752e-17
  9 -3.20462279002792061e-01
 10  8.63649997360848950e-08
 11  4.11156716763666886e-16
 12 -2.42018953793058794e-01
 13  4.57890417658409122e-08
 14 -8.13423416719208292e-17
 15  4.62043297335178703e-03
 16 -4.22095235616844488e-17
 17  1.30904213761649575e-16
 18 -2.69799966794032325e-03
 19 -1.29264631157430108e-09
 20  1.23777791211975678e-02
 21 -1.63211516583555453e-16
 22 -1.63695957955243484e-16
 23 -2.34279092882136684e-02
 24  9.44343112594897580e-09
 25  1.24530596707165149e-16
 26  3.43051918734870159e-03
 27 -1.01709781916286731e-09
 28 -6.70630120082133995e-17
 29  1.10992460888510810e-18
 30  1.49132882726845436e-03
 31 -1.69286618883695361e-09
 32 -8.57309384862485063e-02
 33 -1.21166301475362018e-01
 34 -4.24452763850657333e-02
 35 -9.26677339366816476e-03
 36  1.74315648307500799e-02
 37 -9.63882383052793033e-17
 38 -8.57309717284597816e-02
 39 -1.21166375003615351e-01
 40 -4.24453591990499243e-02
 41 -9.26677052715010885e-03
 42 -1.74315586821556096e-02
 43  5.31890013191059186e-17
 Sym= A
 Ene= -3.85508081278353232e-01
 Spin= Alpha
 Occup=  1.00000000000000000e+00
  1 -9.59941756845847181e-17
  2 -3.27039254800272273e-16
  3  4.37733229685842875e-16
  4  1.14546863424855862e-15
  5  1.50648838072681980e-15
  6 -1.78406945364147001e-16
  7 -1.54822809461537515e-15
  8 -4.76771223772010255e-01
  9  8.35053225788936874e-16
 10  5.22488332782362250e-16
 11 -3.82480505766383705e-01
 12  3.80788339150759803e-16
 13  9.53550947026096456e-16
 14 -3.39971220312331457e-01
 15 -3.81495198067103317e-17
 16 -4.41122607092472082e-03
 17 -2.39263110890738584e-09
 18 -3.40389196493015410e-17
 19  5.65187705905419555e-17
 20 -6.90129976342739907e-16
 21 -2.67387729698040574e-02
 22 -1.57534361666435598e-09
 23 -2.03568130644134402e-16
 24  2.70109214511616419e-16
 25  5.18846634075635204e-03
 26  3.19897519157602097e-16
 27 -1.23188655251450061e-16
 28  1.48546121334007693e-03
 29 -1.58347007712628403e-09
 30 -7.21941314632684879e-17
 31  7.31267327744642098e-17
 32 -2.07353133799836766e-16
 33 -2.49028807007910267e-15
 34  1.31825755864858985e-15
 35  3.28867575338739732e-16
 36  6.70165277394502341e-16
 37 -2.52568133342349829e-02
 38  4.11333949491778777e-16
 39  4.26126802249024069e-16
 40 -2.26926945712237030e-15
 41 -1.00177666551497137e-16
 42 -1.57251583588367580e-17
 43 -2.52568024536932410e-02
 Sym= A
 Ene=  5.63545515684837281e-02
 Spin= Alpha
 Occup=  0.00000000000000000e+00
  1  3.24879506016315933e-02
  2  8.24342159265930297e-02
  3 -1.97312674652725506e-01
  4  9.17221016014522217e-02
  5 -1.22945402129341508e+00
  6 -1.52338798799897784e-01
  7  2.05685704293690031e-07
  8 -1.17134823122801732e-15
  9 -9.56947621020978190e-02
 10  1.86989510815764731e-07
 11 -1.87066800875049920e-15
 12 -3.37964827597300121e-01
 13  3.83795928358549451e-07
 14  2.35955932643774411e-15
 15 -4.68138035559759885e-04
 16 -4.21642561852118662e-17
 17 -4.25441101870205701e-17
 18 -2.01815102489367798e-03
 19 -3.20343274054213890e-09
 20 -2.52572337435306646e-03
 21  2.30761130369942209e-16
 22 -1.05447427710780429e-16
 23 -1.07574479255404341e-02
 24  1.48279135826520831e-08
 25 -1.52535122489026409e-17
 26  9.24404157367771464e-04
 27 -1.93438332437505173e-09
 28 -2.31374744000571316e-17
 29  6.25330248871379631e-18
 30  2.63477895917994278e-04
 31 -2.09386724069002459e-09
 32  3.49336230707504442e-02
 33  5.57886722335386928e-02
 34  9.74176313894618007e-01
 35  1.90141037523445348e-02
 36  2.83469663221344419e-02
 37 -4.14400908402348381e-16
 38  3.49337511706447473e-02
 39  5.57888908018002519e-02
 40  9.74177292354494573e-01
 41  1.90141025837235848e-02
 42 -2.83469488862284624e-02
 43 -1.44769168524009283e-16
 Sym= A
 Ene=  1.30629294111134664e-01
 Spin= Alpha
 Occup=  0.00000000000000000e+00
  1  1.42406154932401971e-08
  2  3.91998630262196266e-08
  3 -1.46316698861443137e-07
  4  3.26604515932788779e-07
  5 -1.11812751990225306e-06
  6 -3.06489267030405176e-08
  7 -2.40899290857240628e-01
  8  6.11810616957221457e-16
  9  7.36220547598622387e-08
 10 -8.14527087058645460e-02
 11  1.01920786262531769e-15
 12 -1.69665208953596248e-07
 13 -7.01363434739163294e-01
 14 -7.12637784282847817e-16
 15  2.12887683004674805e-09
 16  1.34781563036828087e-16
 17 -6.85360281532114292e-17
 18  2.03119434713844522e-09
 19  4.43372811565361012e-04
 20 -1.69404912457125443e-08
 21  3.49572084618133548e-17
 22  1.82612658873360528e-16
 23  8.51749218910971663e-10
 24  2.65388046037037285e-02
 25  3.18288470779394373e-17
 26 -6.36514529348302263e-10
 27 -3.36176468619342754e-04
 28  2.63965929907073470e-17
 29  1.28181488789644547e-16
 30 -2.94548499659521312e-10
 31  3.02123234953912507e-03
 32  2.88193328489689052e-02
 33 -3.63071860038218994e-02
 34  1.70130724444460268e+00
 35  3.34554287903251132e-02
 36  3.72646310093038488e-02
 37 -1.20372741708280998e-16
 38 -2.88194241232927369e-02
 39  3.63068779867305458e-02
 40 -1.70130574597432838e+00
 41 -3.34553504763905052e-02
 42  3.72645641576803410e-02
 43  1.17359768331315763e-16
 Sym= A
 Ene=  4.11686904790193764e-01
 Spin= Alpha
 Occup=  0.00000000000000000e+00
  1  4.59943825310460597e-08
  2  1.02364547859925664e-07
  3 -5.90617276507272305e-08
  4 -6.31223011669067646e-07
  5  6.27671797697567752e-07
  6 -2.55255174216566989e-07
  7  1.18366787607394955e-01
  8 -2.60516906111072085e-16
  9 -2.99367985367906229e-07
 10  3.61828816636316830e-01
 11 -6.24574577941264310e-16
 12 -3.15080405660851638e-07
 13  1.26807525533788690e+00
 14  1.21318730849655259e-15
 15 -2.03086282154574421e-08
 16  8.28813316682041044e-17
 17  4.46399715991151964e-17
 18 -1.98230478227559341e-08
 19 -3.32608674941309718e-02
 20 -1.55661125987994943e-08
 21 -8.83020622014834579e-17
 22 -2.75351853584519404e-16
 23 -1.33863917843375591e-08
 24  1.39581373807252607e-01
 25  1.12415954373018060e-16
 26  1.66302586399177631e-09
 27 -1.35603917142746219e-02
 28 -1.09028950913905526e-16
 29 -1.26539239442310563e-16
 30  7.55897472623139468e-09
 31  4.01864389358724643e-03
 32 -1.19347451485524253e-01
 33 -1.48540613629059970e+00
 34  4.63008348155849681e-01
 35  4.87587043858629735e-02
 36  9.53454670223519846e-02
 37 -1.49963552539548631e-16
 38  1.19347741080660846e-01
 39  1.48540952127751580e+00
 40 -4.63011009501894055e-01
 41 -4.87587170786795560e-02
 42  9.53454288930969396e-02
 43 -5.79002851906568656e-16
 Sym= A
 Ene=  4.59092730324600518e-01
 Spin= Alpha
 Occup=  0.00000000000000000e+00
  1 -3.60612455482151872e-02
  2 -7.86055045881307729e-02
  3 -2.68936669673719118e-02
  4  8.67276137739853792e-01
  5  6.07069080244703407e-01
  6 -7.11242510346405815e-02
  7  2.69374818146161355e-09
  8 -1.54720932229326507e-15
  9 -5.94039171648956532e-02
 10  5.28384693480323216e-07
 11 -3.71723003961459476e-15
 12  1.46665661031149042e+00
 13  2.42221438174025835e-06
 14  6.26647732705231128e-15
 15  1.91345080627675530e-02
 16 -1.01399229168687577e-16
 17  6.94825941724680467e-17
 18  4.25050448459268759e-03
 19 -4.62779917846119193e-08
 20 -7.46365633139590562e-02
 21 -5.21284012812167672e-16
 22  8.91855985579742440e-18
 23 -1.57769413540239192e-03
 24  3.18123178985397824e-07
 25  7.09578554549022641e-17
 26 -7.47912365119110783e-03
 27 -2.22680804801358222e-08
 28  1.48933566229785542e-17
 29  1.80267220452908509e-17
 30 -1.51128935028350276e-02
 31  1.55469272067488873e-08
 32 -7.88307549749315273e-02
 33 -1.46659246190443104e+00
 34  3.55379631269592100e-01
 35  6.53149321968182484e-02
 36  7.22538100957008655e-02
 37 -8.27999857736356429e-17
 38 -7.88304894219107599e-02
 39 -1.46658820968024717e+00
 40  3.55380480326321135e-01
 41  6.53146554940917251e-02
 42 -7.22533889942369445e-02
 43  1.11302626638424805e-16
 Sym= A
 Ene=  4.82218383110257776e-01
 Spin= Alpha
 Occup=  0.00000000000000000e+00
  1 -6.17540195006046236e-17
  2  4.09995788046639032e-17
  3 -2.26574181738040443e-15
  4  1.20566475473619581e-14
  5 -4.16607848922905476e-14
  6 -3.80530813497124034e-15
  7 -7.05436055348886398e-15
  8 -3.13818203418744057e-01
  9 -8.99522673782539194e-15
 10 -6.79827172068779482e-15
 11 -7.06238493011941859e-01
 12 -8.36379202314992219e-15
 13  6.56881436542325577e-15
 14  1.23666941865520830e+00
 15 -4.46927964300697012e-16
 16 -6.81445899781271680e-03
 17 -2.34814755340484420e-09
 18 -2.51400833977308643e-16
 19 -2.47298535619473342e-15
 20  1.59386096168163634e-15
 21  7.46158185874079647e-03
 22 -1.63710384730632113e-09
 23  1.69143532279288851e-16
 24  1.01158459452897916e-15
 25  1.67417813392161047e-03
 26  3.43823466372000693e-16
 27  1.51225157058758342e-15
 28  6.25151754896142455e-04
 29  2.35315763108177994e-10
 30  2.97279442092937146e-16
 31 -2.18307502863991749e-15
 32  4.53529581117949587e-16
 33  2.43502175771953789e-14
 34 -1.03961448891906351e-14
 35 -6.42812331110054065e-16
 36 -1.24700721896736986e-15
 37 -5.84054441820152943e-03
 38  1.76389437443189684e-15
 39  2.85625597491663271e-14
 40  2.39002704802546739e-15
 41 -1.77420002721411455e-15
 42  9.52495221240102427e-16
 43 -5.84051368655628782e-03
 Sym= A
 Ene=  4.94568508089857584e-01
 Spin= Alpha
 Occup=  0.00000000000000000e+00
  1  8.93456445697900573e-03
  2  2.06648002413227366e-02
  3  1.08410777127589016e-02
  4 -2.67599836872823904e-01
  5 -2.01144743219072802e-01
  6 -3.31822594097514578e-01
  7  4.66838836516716094e-08
  8  4.13477594180324260e-15
  9 -7.74107016721133689e-01
 10 -3.90497736689112233e-07
 11  9.29463217412922588e-15
 12  6.56414449327882732e-01
 13 -2.50838982041594560e-06
 14 -1.60262234850546425e-14
 15 -5.47345846405593393e-03
 16  3.53071777110748813e-17
 17  9.95428806567587244e-17
 18 -1.05874630985544511e-02
 19  4.50522130586406373e-08
 20  1.53488738191753498e-02
 21  2.61400098119163908e-16
 22 -2.37711594219561989e-16
 23  9.27362018028313802e-04
 24 -3.12134953213428636e-07
 25 -6.62511450138515299e-17
 26  4.95310006745857886e-03
 27  2.87536511272547444e-08
 28  2.02097945662590056e-17
 29 -5.26645586279196834e-17
 30  9.41385591846773118e-03
 31 -1.57690812376685741e-08
 32  8.28250805933185008e-02
 33  8.87091748597269358e-01
 34 -5.68428299728565567e-01
 35 -3.71562229140727091e-02
 36 -1.47470667191006762e-02
 37  1.75693320723297242e-18
 38  8.28248575993046909e-02
 39  8.87087715916725861e-01
 40 -5.68429053629865288e-01
 41 -3.71559140308070496e-02
 42  1.47466363095172248e-02
 43 -1.90422151763340366e-16
 Sym= A
 Ene=  6.24090329815889522e-01
 Spin= Alpha
 Occup=  0.00000000000000000e+00
  1  3.86261633512975117e-08
  2  7.81877127678301779e-08
  3  3.51556428592894667e-08
  4 -1.74449717378158144e-06
  5  5.45498156583384910e-06
  6  4.68840268382562498e-08
  7  3.55749155964444841e-01
  8 -1.66660740568365107e-15
  9  4.84859389544961909e-07
 10  7.78597764545652771e-01
 11 -3.94560776295493593e-15
 12  1.66179949929015971e-06
 13 -2.00441282599740589e+00
 14  5.18101165998215739e-15
 15  3.02966701514553116e-08
 16 -1.41867963588558972e-16
 17  2.48133189149150571e-16
 18  1.26460522841875588e-08
 19  1.01068342360022528e-02
 20 -1.38233059272583746e-07
 21 -2.75882719525605835e-16
 22 -8.67483142087171115e-16
 23 -2.92199910743051117e-08
 24 -5.19360663769443606e-02
 25  2.46301384122615775e-17
 26 -1.94540616145712958e-08
 27  4.20871438168592734e-04
 28 -2.16836087590347707e-17
 29 -2.00085829489118892e-17
 30 -4.04060563296273540e-08
 31 -1.65097918493213418e-03
 32 -6.07147932653028174e-02
 33 -1.33098685563222852e-01
 34  1.59251694179766790e+00
 35 -2.80185476934644954e-02
 36 -2.52648274250189715e-02
 37  1.86574706452456722e-16
 38  6.07147695940613366e-02
 39  1.33094118753665613e-01
 40 -1.59251801262488479e+00
 41  2.80188708760290318e-02
 42 -2.52651787664725513e-02
 43  8.59997412453852864e-16
 Sym= A
 Ene=  6.48750119634212696e-01
 Spin= Alpha
 Occup=  0.00000000000000000e+00
  1 -5.21367673379323771e-02
  2 -1.07247648948755880e-01
  3 -1.06653919387105819e-01
  4  2.27325854704471642e+00
  5 -4.83211291601203019e+00
  6  6.83007645125547902e-02
  7  4.05576997917080158e-07
  8  3.31607330597740030e-15
  9 -1.10132086066271496e-02
 10  7.65546522648894053e-07
 11  2.86213969702335807e-15
 12 -1.23460374778611093e+00
 13 -2.43640074777211960e-06
 14 -8.05370523371904819e-15
 15 -1.66462648753472366e-02
 16  2.59050111144939128e-16
 17  8.61718988487422557e-17
 18 -5.77582831330545644e-03
 19  9.06538642479801569e-09
 20  5.67121505755022667e-02
 21 -1.84545350512989699e-16
 22  7.67621216072477419e-16
 23  4.30813717566049144e-03
 24 -7.99178242657662468e-08
 25  5.25362493170110842e-17
 26  5.22540882674726870e-03
 27 -5.58661126155560810e-09
 28 -2.50119497738157140e-17
 29 -4.90767747046087990e-17
 30  1.14465957851798555e-02
 31 -2.43003423985212327e-09
 32 -1.99693771142588662e-02
 33  9.18847840619375189e-01
 34  9.50402003881718582e-01
 35 -6.56925306114349156e-02
 36 -5.84953461202193173e-02
 37  5.14150524195293726e-16
 38 -1.99692383223015121e-02
 39  9.18848005325562545e-01
 40  9.50397035384046074e-01
 41 -6.56924615186192246e-02
 42  5.84952864139728218e-02
 43  3.89674812798870703e-16
 Sym= A
 Ene=  1.23416014165509935e+00
 Spin= Alpha
 Occup=  0.00000000000000000e+00
  1  3.60241506220695734e-03
  2  9.35376829557125859e-03
  3 -3.78277740076516031e-02
  4 -7.30529717529295602e-02
  5  9.10511976568876058e-01
  6  8.30336741602851203e-02
  7 -1.71666007304274361e-08
  8  1.33831785598425052e-15
  9  1.57247893308439191e-01
 10  1.67451448287908344e-07
 11  4.08795995521938762e-16
 12  5.65141775087229181e-01
 13  2.74103887602927916e-07
 14  2.54280825418709887e-15
 15 -7.99816690756087706e-04
 16  1.43643935559920587e-16
 17 -2.65476791512056893e-16
 18 -1.13656128864327421e-02
 19  7.20059993811017176e-10
 20  1.34886554508419326e-01
 21 -7.57185667797132718e-15
 22 -3.10770960699547438e-14
 23 -5.07262701711775787e-01
 24  2.47345668562300185e-07
 25 -2.73583634980263525e-17
 26 -3.78305374799432163e-03
 27 -3.25441470329949192e-09
 28 -3.18324165390652046e-17
 29  7.34601447911668622e-16
 30 -8.24325642038970484e-03
 31  3.23646519557660739e-08
 32  4.04332213276510574e-02
 33 -5.90789015737084533e-01
 34 -4.65072426505677844e-02
 35 -3.06552928857493578e-01
 36  3.01234130855473292e-01
 37 -2.95397492123280600e-14
 38  4.04332183762538058e-02
 39 -5.90788112078920458e-01
 40 -4.65070799427799372e-02
 41 -3.06553283224655970e-01
 42 -3.01234002451455374e-01
 43  2.17764037877312758e-14
 Sym= A
 Ene=  1.25455939269799321e+00
 Spin= Alpha
 Occup=  0.00000000000000000e+00
  1  1.36713611373875294e-16
  2  1.97792385506811991e-16
  3  1.27958573786883757e-15
  4 -1.21390162942991701e-14
  5  6.08126733426159479e-14
  6  4.20792843252903837e-15
  7  1.36221003429840535e-15
  8  3.27590312276607732e-08
  9  8.64186685059021303e-15
 10 -6.51472147860807230e-15
 11 -1.43023839421225907e-07
 12  3.46644790615050509e-14
 13 -5.21072019615441388e-15
 14  1.97496266006589330e-07
 15 -4.66284533486588796e-17
 16  3.65414817486612131e-09
 17  8.13989224890077426e-03
 18 -8.63838501419271234e-16
 19  1.91990591562965706e-16
 20  9.67459348599160314e-15
 21 -2.78503862108424339e-07
 22  5.40766668168049081e-01
 23 -3.02934060523763268e-14
 24 -6.56938439705875604e-15
 25  1.50300449554273271e-08
 26 -1.13661077035197519e-16
 27  4.94534210910810422e-16
 28 -4.07165364648900172e-09
 29 -1.02164826270847563e-02
 30 -6.58766432517410461e-16
 31 -1.90112791809366415e-16
 32  8.87630590008872596e-16
 33 -2.39039643550160687e-14
 34 -4.69743124593129375e-15
 35 -2.00860492670069852e-14
 36  1.37590495924538704e-14
 37  4.24647219941942544e-01
 38  5.59765818213341738e-15
 39 -4.73887804392251359e-14
 40 -3.15425730310325751e-15
 41 -1.58268317405098910e-14
 42 -2.04751614824602159e-14
 43 -4.24647673401401415e-01
 Sym= A
 Ene=  1.36454359223866994e+00
 Spin= Alpha
 Occup=  0.00000000000000000e+00
  1  1.38855632140214790e-16
  2  4.46018678037067784e-16
  3 -4.04341312156462307e-16
  4 -8.44449767813197844e-15
  5  1.86740007433218617e-14
  6 -4.18978004836126690e-16
  7 -2.30771340489250189e-15
  8 -1.01003444880865739e-01
  9  9.91962291343254558e-17
 10  9.42237219622288794e-15
 11 -5.22781568144280867e-02
 12  9.78519701327387558e-15
 13  7.42596122413831486e-15
 14 -2.08511452483292198e-01
 15 -1.09108780813514636e-17
 16  5.32483096731323734e-04
 17  8.10557596579083446e-09
 18 -1.46605599882167805e-16
 19 -3.02578514456220083e-16
 20  1.69455868006126107e-15
 21  6.74408975740717009e-01
 22  2.06533924432798820e-07
 23 -4.63884801421722160e-15
 24  9.19712818030499961e-15
 25  4.53274417565907063e-03
 26  3.56879849677595822e-16
 27 -9.95824493698446813e-17
 28  1.36674100188439018e-02
 29 -2.53576511165992955e-08
 30  1.15800707372563513e-16
 31  3.67393040124914778e-16
 32  2.72581296132164836e-15
 33 -2.37580227510264963e-14
 34  4.37374149266336814e-16
 35 -1.94662207185308090e-15
 36  3.47333651357619362e-15
 37  3.81323347074977781e-01
 38 -4.27226531423420416e-15
 39  1.28075026000725826e-14
 40 -6.07263031101893867e-15
 41 -9.40180566452212425e-15
 42  5.15297075708560432e-16
 43  3.81322987688127557e-01
 Sym= A
 Ene=  1.58684006349619655e+00
 Spin= Alpha
 Occup=  0.00000000000000000e+00
  1  1.82968944597242181e-08
  2  7.13965151850165347e-08
  3 -9.75605434980119868e-07
  4  3.61555878930503357e-06
  5  2.65235491145666959e-06
  6 -2.38003757367378608e-07
  7 -1.21337756257804338e-01
  8 -7.56641689938316102e-16
  9  1.85283308016662007e-06
 10  9.48918846517360026e-01
 11  6.37827943595201754e-16
 12  1.31817784609097476e-06
 13  9.52978274922688051e-01
 14 -1.87112399095715466e-16
 15 -2.03929536863404401e-09
 16  2.01483413226263041e-16
 17 -9.99343956677016336e-17
 18 -8.87461061875437363e-10
 19 -1.06922459562862112e-02
 20 -1.17400193069297175e-06
 21 -8.21002601490471008e-15
 22  2.40870347394586335e-15
 23 -1.77936928860723717e-07
 24  1.21792512210216053e+00
 25 -1.03130939091080334e-16
 26 -8.95635572058729343e-08
 27 -5.56165975433036697e-02
 28  1.72497227744061570e-18
 29 -3.30069464285457439e-16
 30 -1.62560682996730463e-07
 31  3.82742925382760432e-02
 32  3.72925423172968729e-01
 33 -2.19465186810388690e+00
 34  5.09093933461541082e-01
 35  4.36429556270744201e-01
 36  1.89760730797052940e-01
 37  1.32475621644146142e-15
 38 -3.72924881368326688e-01
 39  2.19464420449902686e+00
 40 -5.09093409789799112e-01
 41 -4.36428015446388373e-01
 42  1.89758914905381382e-01
 43 -3.45132951595286203e-15
 Sym= A
 Ene=  1.69742077166059580e+00
 Spin= Alpha
 Occup=  0.00000000000000000e+00
  1 -1.55977593711284640e-02
  2 -5.25509301468643358e-02
  3  4.11149903190335175e-01
  4 -7.70556818433338897e-01
  5 -1.83067885534956099e+00
  6  1.03620733713649729e-01
  7  2.85350060892261221e-08
  8 -1.37733817483507516e-15
  9 -5.41784843477792100e-01
 10 -8.76857701310001886e-07
 11  1.67615993730659755e-15
 12 -9.30355487050624319e-01
 13  5.41581389663068051e-07
 14 -1.07095857891914204e-15
 15 -6.51610117545556745e-03
 16  1.20635338048019107e-16
 17  8.65307036784905053e-17
 18  1.34600506218672923e-03
 19 -2.12914946118373093e-09
 20  1.12090658806681009e+00
 21 -1.46058079842494396e-15
 22  2.59197726111926432e-16
 23  2.90753974896151068e-01
 24  2.05462308647909473e-07
 25  1.25887458337264720e-16
 26  3.90298875296108336e-02
 27  2.89098153787002774e-08
 28 -4.81204217325814658e-17
 29 -2.34857858821642055e-16
 30  5.90678710714204885e-02
 31 -3.20996068005969431e-08
 32 -3.58488558860158069e-01
 33  2.10685541436931034e+00
 34 -1.98515883558126133e-01
 35 -1.56688173336547970e-01
 36 -2.46140950044115098e-01
 37 -4.78469013309047701e-16
 38 -3.58489322520929132e-01
 39  2.10685525010159003e+00
 40 -1.98516384549412284e-01
 41 -1.56688164411976472e-01
 42  2.46139466187223932e-01
 43  2.15133459319942316e-15
 Sym= A
 Ene=  1.81606288384742953e+00
 Spin= Alpha
 Occup=  0.00000000000000000e+00
  1 -2.90059680902145997e-09
  2 -2.23301616114284521e-09
  3 -2.24035128797337016e-07
  4  1.34891833412252366e-06
  5 -8.32503393067670835e-07
  6 -1.10121795757906614e-07
  7 -1.72435442095086461e-01
  8 -6.26818268289477611e-17
  9  8.15254698322824843e-07
 10  3.25439174152024835e-01
 11  8.77140547256284273e-16
 12 -5.06351313778056860e-07
 13 -3.67239405852395950e-01
 14 -7.06768183741975018e-17
 15 -4.70439731623220892e-09
 16 -4.68850718096710595e-17
 17  1.90858006785294705e-16
 18 -1.79370605213519352e-08
 19 -1.32008613464969279e-02
 20  5.01574186164370398e-07
 21  1.03025391396055862e-15
 22 -1.48293037047104556e-15
 23 -3.11949811174566423e-08
 24  4.68902069700947388e-01
 25  3.57519698433582857e-16
 26 -3.29836119347802380e-08
 27 -2.07658944459619653e-02
 28  5.71748003501701283e-18
 29  4.88054389408949897e-17
 30 -2.68437193944815095e-08
 31  2.33734631474902220e-02
 32  1.26532341521929326e-01
 33 -4.86094524763311109e-01
 34  3.67835851850461415e-01
 35 -5.17580383836941382e-01
 36  5.85102320008535348e-01
 37  9.57073223342684689e-16
 38 -1.26532386775107142e-01
 39  4.86094221719982233e-01
 40 -3.67835528903085351e-01
 41  5.17581167673903275e-01
 42  5.85101689572522288e-01
 43 -3.99747794541475782e-15
 Sym= A
 Ene=  2.04541849918038210e+00
 Spin= Alpha
 Occup=  0.00000000000000000e+00
  1  1.44357045755340863e-02
  2  6.23506196250873598e-02
  3 -8.05804066202726710e-01
  4  2.57194583329852700e+00
  5 -1.36940331074668187e-01
  6 -4.09089202596846280e-01
  7 -5.67138898285129244e-08
  8  1.43867939890635701e-15
  9  1.32399631774031157e+00
 10  1.56512559721768456e-06
 11 -6.17075027344761116e-16
 12 -6.95612031487741339e-02
 13 -3.29328897146123368e-07
 14  1.25937143496759096e-15
 15  2.91025224452508237e-03
 16 -1.22803374346967534e-16
 17 -2.08277829603995450e-16
 18  1.84038018355732079e-03
 19  3.91727883134623974e-08
 20  1.43492556778098218e-01
 21  5.55896136001844323e-15
 22  3.96408195572096203e-15
 23 -2.32130632390536523e-01
 24 -2.84881987435459534e-07
 25  4.02322581712583315e-17
 26 -6.55942892604728656e-02
 27 -2.81758773867048725e-08
 28  2.28680106864863168e-16
 29  2.39708039842522569e-16
 30 -1.43913122826945794e-01
 31  4.27364134089949497e-08
 32  6.42303056594397237e-01
 33 -1.87535338552054198e+00
 34  4.88525225808559560e-01
 35  6.09084774960142350e-01
 36  5.62343792818760790e-01
 37 -6.50831008770936746e-15
 38  6.42304075825419707e-01
 39 -1.87535233137111623e+00
 40  4.88525210348941197e-01
 41  6.09082961402444112e-01
 42 -5.62342756015301926e-01
 43  3.15376376481201445e-16
 Sym= A
 Ene=  2.12121917954131245e+00
 Spin= Alpha
 Occup=  0.00000000000000000e+00
  1  3.86376267622941715e-16
  2  1.05361604303599753e-15
  3 -7.10676422570357909e-15
  4  1.21739590446627080e-14
  5 -1.75853771373998915e-15
  6 -6.33141625097812257e-15
  7 -7.50330315567469744e-15
  8 -3.25991747672679744e-01
  9  9.25650942212303484e-15
 10  2.07786428717604920e-14
 11  1.62922359733360889e-01
 12 -2.31893049988437025e-15
 13 -7.91008831768812895e-15
 14 -4.79369009129438639e-01
 15 -9.19774938300096999e-17
 16  9.94497870444683955e-03
 17 -3.40023712893184148e-08
 18  1.01671032613201747e-17
 19 -5.69115670073266400e-16
 20  1.47818215671177703e-16
 21 -8.79774470706575440e-01
 22  3.42886561378284775e-06
 23 -2.99323886532454281e-15
 24 -3.37089510260416484e-15
 25 -3.50342296745996149e-03
 26 -3.08667445242560145e-16
 27 -9.66525984146830249e-16
 28 -1.46257868788443237e-02
 29 -4.85224603190764017e-08
 30 -2.54461038805790371e-16
 31  1.81904867671942976e-16
 32  7.10691666881809598e-15
 33 -1.85103361004871635e-14
 34  7.76190032798986892e-15
 35  6.98954197620810499e-15
 36  6.85060324864389282e-15
 37  7.54146980106721654e-01
 38 -1.44861628089036397e-15
 39  3.47240996610931076e-15
 40 -2.80312566946687148e-15
 41 -2.19379357428204491e-15
 42  6.75705030675143328e-15
 43  7.54151588540465490e-01
 Sym= A
 Ene=  2.17357977151927884e+00
 Spin= Alpha
 Occup=  0.00000000000000000e+00
  1  2.42379910888165647e-16