[Molden Format]
[Atoms] (AU)
O    1    8        -0.123672762329       0.000000046922       0.000000000000
H    2    1         0.981388135752       1.445736960150       0.000000000000
H    3    1         0.981388349216      -1.445737704840       0.000000000000
[GTO]
  1 0
 s    6  1.00
    27032.3826310000         0.0002172630
     4052.3871392000         0.0016838662
      922.3272271000         0.0087395616
      261.2407098900         0.0352399688
       85.3546413510         0.1115351912
       31.0350352450         0.2558895396
 s    2  1.00
       12.2608607280         0.3976873090
        4.9987076005         0.2462784943
 s    1  1.00
        1.1703108158         1.0000000000
 s    1  1.00
        0.4647474099         1.0000000000
 s    1  1.00
        0.1850453636         1.0000000000
 p    4  1.00
       63.2749548010         0.0060685103
       14.6270493790         0.0419125758
        4.4501223456         0.1615384109
        1.5275799647         0.3570695131
 p    1  1.00
        0.5293511794         1.0000000000
 p    1  1.00
        0.1747842127         1.0000000000
 d    1  1.00
        2.3140000000         1.0000000000
 d    1  1.00
        0.6450000000         1.0000000000
 f    1  1.00
        1.4280000000         1.0000000000

  2 0
 s    3  1.00
       34.0613410000         0.0060251978
        5.1235746000         0.0450210940
        1.1646626000         0.2018972600
 s    1  1.00
        0.3272304100         1.0000000000
 s    1  1.00
        0.1030724100         1.0000000000
 p    1  1.00
        0.8000000000         1.0000000000

  3 0
 s    3  1.00
       34.0613410000         0.0060251978
        5.1235746000         0.0450210940
        1.1646626000         0.2018972600
 s    1  1.00
        0.3272304100         1.0000000000
 s    1  1.00
        0.1030724100         1.0000000000
 p    1  1.00
        0.8000000000         1.0000000000

[5D]
[9G]

[MO]
 Sym= A
 Ene= -1.87442032654974540e+01
 Spin= Alpha
 Occup=  1.00000000000000000e+00
  1  4.35282399906959327e-01
  2  6.38925317081060262e-01
  3  3.66293095505472316e-02
  4 -2.47429151229551468e-02
  5  1.00401037999349324e-02
  6  1.78936526584980962e-03
  7 -1.00865801648833256e-10
  8  1.18680518061227960e-16
  9 -3.19264039751255982e-03
 10  1.02671049417510664e-09
 11 -1.63038405027107355e-16
 12  1.19106834034408623e-03
 13  7.22435419702500674e-10
 14  6.64754701434115888e-18
 15 -2.34619234893930137e-04
 16  4.84826190992959278e-17
 17  5.03606845488848563e-17
 18 -9.31729538593785358e-05
 19 -6.30511974373214242e-11
 20  9.83297404189214597e-04
 21 -8.91514894441484725e-17
 22  2.19026954457087787e-17
 23  4.03547837471608857e-04
 24  8.06836204735799264e-10
 25  1.10621965532304054e-17
 26  2.08147921157036416e-04
 27 -1.84986604366803035e-10
 28 -1.03223052980290981e-19
 29 -1.16334604269565578e-16
 30  3.95273860699637939e-04
 31 -4.08897019859503984e-11
 32  9.10577974117979618e-04
 33  1.76923448118460969e-03
 34 -2.09529865912612672e-03
 35 -7.12407846962175495e-04
 36 -9.96820993133590164e-04
 37  1.13252757348784609e-17
 38  9.10577720968816745e-04
 39  1.76923545222636646e-03
 40 -2.09529653674769226e-03
 41 -7.12409144352658518e-04
 42  9.96822867729573597e-04
 43  2.73793081171041428e-16
 Sym= A
 Ene= -9.22668804360208261e-01
 Spin= Alpha
 Occup=  1.00000000000000000e+00
  1  9.76487530626108241e-02
  2  2.28291004100614592e-01
  3 -3.31941548759462302e-01
  4 -4.37975915771872060e-01
  5 -1.51759258271795316e-01
  6 -9.22914275791779787e-02
  7 -6.99079875514532288e-08
  8 -7.79706053940644038e-16
  9 -7.66910746487304007e-02
 10 -2.36706649963276818e-08
 11 -2.74618174600581182e-16
 12 -1.28152510495046171e-02
 13 -2.14637530495181576e-09
 14 -3.04645873492222821e-16
 15  4.54577149859244564e-03
 16  1.30543212525242401e-16
 17 -1.89157876498608049e-16
 18  1.04290954270900649e-03
 19 -6.79845750274658885e-09
 20  1.18287796739846955e-02
 21 -1.51885670746179757e-17
 22  1.43342317981948584e-16
 23  1.07305927976263571e-03
 24  3.45647372736521761e-09
 25 -7.59731838150076099e-17
 26  2.55044806864747862e-03
 27  1.49334813356929092e-09
 28 -5.77133647992519248e-17
 29 -7.81505024305535237e-17
 30  3.68431367245568514e-03
 31 -1.78949497211621566e-09
 32 -9.52382656678759931e-02
 33 -7.13262113494707722e-02
 34 -7.98672750615947273e-03
 35  8.05474573080689447e-03
 36  1.51347568802391412e-02
 37 -2.30688472011060448e-16
 38 -9.52381471933673174e-02
 39 -7.13261393353444156e-02
 40 -7.98671870239669839e-03
 41  8.05472644897528740e-03
 42 -1.51347399579552233e-02
 43  2.95629823631255569e-17
 Sym= A
 Ene= -4.78805830583384939e-01
 Spin= Alpha
 Occup=  1.00000000000000000e+00
  1  1.93095475555408720e-08
  2  4.50686666362009385e-08
  3 -5.59150082979923358e-08
  4 -1.48039868708454325e-07
  5 -1.19166528024951003e-07
  6  8.58567323513233457e-08
  7  3.85541830555049092e-01
  8 -2.20371136716903732e-16
  9  3.48003043659937100e-08
 10  2.95711289744180539e-01
 11 -2.09887541809436186e-16
 12  1.84849537712075220e-08
 13  1.19172015984569099e-01
 14 -1.82122641399696643e-16
 15 -3.11134387434785300e-09
 16  5.24602768057066360e-17
 17 -2.02418954712328913e-16
 18 -3.79309084379009266e-10
 19  1.13915460575826563e-02
 20  4.24932416080112555e-09
 21  1.04771058339063884e-16
 22  2.38360645432147346e-16
 23  5.89993977980843908e-09
 24  2.37064266260155788e-02
 25 -5.74131940404232438e-17
 26 -8.34543523173064685e-10
 27 -4.88648835422046766e-03
 28 -7.44689200589082028e-17
 29  1.10835362780600340e-16
 30 -1.15871613575935196e-09
 31 -4.06637464420344036e-04
 32  1.49711930954114975e-01
 33  1.85028741324915424e-01
 34  7.05537635689889031e-02
 35 -1.70875770455701272e-02
 36 -7.83493501847569440e-03
 37 -1.87367261040412496e-17
 38 -1.49711910595755754e-01
 39 -1.85028755841069953e-01
 40 -7.05537969071525356e-02
 41  1.70875674298901353e-02
 42 -7.83493534799070690e-03
 43  1.37326992267751194e-16
 Sym= A
 Ene= -3.31844023390504117e-01
 Spin= Alpha
 Occup=  1.00000000000000000e+00
  1 -3.83401493282779088e-02
  2 -9.12437791286337396e-02
  3  1.41847616094697121e-01
  4  2.01013581590605200e-01
  5  2.33877964471801925e-01
  6 -4.14708026728409340e-01
  7  5.49978240423382510e-08
  8  4.98412014963586752e-16
  9 -3.18107036156091316e-01
 10  6.44084882772026627e-08
 11  8.65846328187662110e-16
 12 -2.38285589039621271e-01
 13  3.22618593106082781e-08
 14  2.81232870574791924e-16
 15  4.06923185545970609e-03
 16 -1.06949315540655058e-16
 17  1.60318665102569769e-16
 18 -2.87592025393157034e-03
 19 -2.17957101511441958e-09
 20  1.15692679885850223e-02
 21 -1.62906520326995200e-16
 22 -2.00665261992104828e-16
 23 -2.39566805844104273e-02
 24  6.50729243560096405e-09
 25  1.32480013272932160e-16
 26  3.32780693909176658e-03
 27 -7.17845613490880902e-10
 28 -7.17996626716772003e-17
 29  2.07729594583234022e-17
 30  1.36758112528006831e-03
 31 -1.63194954364778663e-09
 32 -8.66309202749650370e-02
 33 -1.22253917205674092e-01
 34 -4.78609300801304399e-02
 35 -1.11929673355681478e-02
 36  1.64099385457090255e-02
 37 -1.86934482416848385e-16
 38 -8.66309372556318402e-02
 39 -1.22253971276375883e-01
 40 -4.78610051513236462e-02
 41 -1.11929671812870234e-02
 42 -1.64099309975392210e-02
 43  1.04828221702509998e-16
 Sym= A
 Ene= -2.56046373016121986e-01
 Spin= Alpha
 Occup=  1.00000000000000000e+00
  1 -1.71740350148897118e-16
  2 -4.42961415899489965e-16
  3 -1.65492847616059418e-16
  4  4.87545463988199738e-15
  5 -3.38375810222604156e-15
  6 -4.94172665985920938e-16
  7 -1.23105572533813843e-15
  8 -4.75007317887347014e-01
  9  9.21061692870401861e-16
 10 -1.22547430617734018e-15
 11 -3.81251648797936271e-01
 12 -1.29826199473943624e-15
 13  3.22829577443467702e-15
 14 -3.42416902033158332e-01
 15 -1.18027444701595745e-16
 16 -4.28354575333173872e-03
 17 -2.48216963310881743e-09
 18 -1.15630741704273177e-16
 19  4.75823451377599673e-17
 20 -7.79291193920511565e-16
 21 -2.71513540929021122e-02
 22 -1.83369408516194728e-09
 23 -1.70792381494757803e-16
 24 -4.18022120627970603e-16
 25  5.13380487117814401e-03
 26  4.47853608231647202e-16
 27 -8.89328100318719127e-17
 28  1.43405283590190575e-03
 29 -1.61276213526353521e-09
 30 -1.39714713088272801e-16
 31 -1.19431083670201030e-17
 32 -8.23845661134634352e-17
 33 -1.38874203954585868e-15
 34  1.09724256590122121e-16
 35  2.08338990804328824e-16
 36  8.99523206187331421e-17
 37 -2.63567263367297695e-02
 38  1.76152632113366951e-16
 39 -5.08849462335120748e-16
 40  1.79006405363930546e-15
 41  2.87148861133246762e-16
 42 -8.08266076454163546e-16
 43 -2.63567161096971217e-02
 Sym= A
 Ene= -1.74558917070895096e-03
 Spin= Alpha
 Occup=  0.00000000000000000e+00
  1  3.50958651961129978e-02
  2  8.76085572671005675e-02
  3 -1.92788892768082198e-01
  4 -6.35140669837137763e-03
  5 -1.11454632757912853e+00
  6 -1.72846190617404694e-01
  7  2.73478921026152077e-07
  8 -5.09662732508525697e-16
  9 -1.31435141932543048e-01
 10  2.36509074836173847e-07
 11  4.10313376506081150e-16
 12 -3.20536281432245884e-01
 13  4.60948606945413105e-07
 14 -9.95846661380113742e-16
 15 -8.97262132046866296e-04
 16 -1.29466340606134125e-16
 17  5.11775706633069070e-17
 18 -2.55508551162331827e-03
 19 -4.50803104762582260e-09
 20 -8.15086498168217420e-04
 21  2.83967543541330766e-16
 22 -2.13124348705229315e-16
 23 -1.14394394693675475e-02
 24  8.00823754876456118e-09
 25 -1.86891444692548804e-17
 26  1.21208478937429964e-03
 27 -1.64449553621448324e-09
 28 -2.41183357401764519e-17
 29  9.65733294999663818e-18
 30  6.57941406084169649e-04
 31 -3.21888981210878780e-09
 32  4.41156528666353312e-02
 33  1.19366465284297632e-01
 34  9.03558705282125785e-01
 35  1.80994760443962538e-02
 36  2.82833457125509329e-02
 37 -2.60499296018969286e-16
 38  4.41158146125387521e-02
 39  1.19366816249400529e-01
 40  9.03559973157583407e-01
 41  1.80994944591017261e-02
 42 -2.82833456500549696e-02
 43 -5.88954024654891917e-17
 Sym= A
 Ene=  7.34153515471627771e-02
 Spin= Alpha
 Occup=  0.00000000000000000e+00
  1  2.07646600306622173e-08
  2  5.45921615704334236e-08
  3 -1.62933294381232829e-07
  4  2.21530124134101514e-07
  5 -1.23194150490478281e-06
  6 -5.69208427017350462e-08
  7 -2.71988730529682310e-01
  8  2.25439714957621626e-16
  9  2.64499137829695730e-08
 10 -1.48292539639614085e-01
 11  8.77486020793357918e-16
 12 -2.16994608928610849e-07
 13 -6.69157568616435716e-01
 14 -6.76780561563805044e-16
 15  2.21800056706555305e-09
 16  1.15591781175630171e-17
 17  3.69343189557708501e-17
 18  2.34425760930349969e-09
 19  2.19134545815316811e-03
 20 -9.90102497949299666e-09
 21  1.91235698376794282e-16
 22  2.25135380712286413e-16
 23  1.34730144177524136e-09
 24  1.96712276485829299e-02
 25  8.28923938135612002e-17
 26  5.35887276950749610e-10
 27  5.27715481653361724e-04
 28  1.96047992203293727e-16
 29  2.28007820507746012e-16
 30  1.50960678297281603e-09
 31  2.86857100450712719e-03
 32  4.13622690859698841e-02
 33  7.07960169392805871e-02
 34  1.56926040422875901e+00
 35  3.23878406184695267e-02
 36  3.37198889495300969e-02
 37 -2.44277050064834048e-16
 38 -4.13623527000648097e-02
 39 -7.07962683943156729e-02
 40 -1.56925860590649502e+00
 41 -3.23877679862015627e-02
 42  3.37198306413778459e-02
 43 -5.33523187589066422e-17
 Sym= A
 Ene=  3.28904692676636468e-01
 Spin= Alpha
 Occup=  0.00000000000000000e+00
  1  4.78376559123833263e-08
  2  1.06346691834036931e-07
  3 -5.53193866915590021e-08
  4 -7.29574345540930036e-07
  5  6.34733403139380201e-07
  6 -3.21186726119806896e-07
  7  1.24537084845921325e-01
  8  1.20894862030488932e-15
  9 -4.47483130045392237e-07
 10  3.69781105812495181e-01
 11  2.04973155018952186e-15
 12 -2.37525420367164370e-07
 13  1.09041450369492687e+00
 14 -3.31545997717036662e-15
 15 -2.20414138167714888e-08
 16 -1.68654607520848211e-16
 17  2.98497872638603559e-16
 18 -2.20437187900034479e-08
 19 -3.13653111735234316e-02
 20 -1.85629144145623804e-08
 21  6.13476517843930927e-17
 22 -3.06677323248853060e-16
 23 -2.22495568011486776e-08
 24  1.13574980733486403e-01
 25  1.09824724643880654e-16
 26  2.01620331658928869e-09
 27 -1.17718751169291411e-02
 28  1.82291741132080093e-16
 29  2.67813623736630637e-18
 30  8.17833274798831482e-09
 31  3.39576327679671532e-03
 32 -1.32162571572143783e-01
 33 -1.43418217262282965e+00
 34  6.52035096108376400e-01
 35  3.96581481829908905e-02
 36  8.95893815017682199e-02
 37 -1.75402817219241555e-16
 38  1.32162971936132023e-01
 39  1.43418609922399942e+00
 40 -6.52038284166172266e-01
 41 -3.96581898446162553e-02
 42  8.95893536697515425e-02
 43 -2.73192915870364461e-16
 Sym= A
 Ene=  3.77551223329672225e-01
 Spin= Alpha
 Occup=  0.00000000000000000e+00
  1 -3.68008480273339031e-02
  2 -8.08636724998342271e-02
  3 -1.73661204814665529e-02
  4  8.81869799393365073e-01
  5  5.17854321445760601e-01
  6  6.29815163582256744e-03
  7  5.57278726277105210e-08
  8  2.59775673635159486e-15
  9  1.12837490177859462e-01
 10  7.12545865366009177e-07
 11  5.58164524487901118e-15
 12  1.21491473896539914e+00
 13  2.86405598674952763e-06
 14 -1.01847227536597189e-14
 15  1.89054733864151697e-02
 16  1.62900020830787448e-16
 17  1.78179780985060167e-17
 18  6.65853678035408826e-03
 19 -5.89818323571781678e-08
 20 -6.20904092984344638e-02
 21 -7.02277046720800061e-16
 22  1.20823683550871699e-16
 23  4.31416757099082823e-03
 24  3.48033641462197080e-07
 25  5.60785510985306383e-17
 26 -7.11365573389783571e-03
 27 -2.76727437120299044e-08
 28 -8.50406528389344855e-18
 29  1.92837374209234129e-17
 30 -1.47711892223410142e-02
 31  1.70382333685594787e-08
 32 -1.09631576171308531e-01
 33 -1.57183082136187102e+00
 34  5.26338991006041423e-01
 35  7.10406746940183548e-02
 36  6.27310696199222806e-02
 37  1.09019884981750236e-16
 38 -1.09631184208171223e-01
 39 -1.57182536558372110e+00
 40  5.26339292728555175e-01
 41  7.10403734283139715e-02
 42 -6.27305657488763102e-02
 43  3.43891715899901153e-16
 Sym= A
 Ene=  3.98250106477431698e-01
 Spin= Alpha
 Occup=  0.00000000000000000e+00
  1 -2.07282134411879171e-16
  2 -3.38234451984251874e-16
  3  3.23531058734027184e-15
  4 -1.46676521251779209e-14
  5 -9.22037472661357309e-16
  6 -8.99069323451292609e-14
  7  1.41695554279857214e-16
  8  3.28094683200746029e-01
  9 -1.91940430193567936e-13
 10 -3.20427317001298240e-15
 11  6.92188299517038419e-01
 12  2.52031071255406330e-13
 13 -2.49736770023871346e-15
 14 -1.22579519014075644e+00
 15 -1.83012435045946410e-16
 16  6.63185101433783411e-03
 17  2.45020527619731385e-09
 18 -2.39858527478378176e-15
 19  3.93886978483966746e-16
 20 -2.45316192992956878e-15
 21 -7.14514945250793471e-03
 22  3.01748848160054603e-09
 23 -5.53371495963797698e-16
 24 -1.29704184028975328e-15
 25 -2.09265715417797631e-03
 26  3.70003719291394567e-16
 27 -1.52233540217761073e-17
 28 -7.69197543479134744e-04
 29  1.67176190475589324e-10
 30  1.21248208198862659e-15
 31  3.71558374819278784e-16
 32  1.94090964059023532e-14
 33  1.39644658932022303e-13
 34 -1.37350485080150184e-13
 35 -4.56737690664053352e-15
 36  3.59655559894928482e-16
 37  4.45263763672947791e-04
 38  1.90356729742916224e-14
 39  1.26647523263743810e-13
 40 -1.28673948646753222e-13
 41 -2.86047680724283575e-15
 42 -1.69680605979182195e-15
 43  4.45230493609090848e-04
 Sym= A
 Ene=  4.00287626814343045e-01
 Spin= Alpha
 Occup=  0.00000000000000000e+00
  1  1.90178949339566143e-03
  2  3.43004284144262555e-03
  3 -6.80563910148861053e-03
  4  1.37682700683931965e-02
  5  2.36683635919050124e-02
  6  3.47544002745771241e-01
  7  2.90170777641131622e-08
  8  8.53227771071222698e-14
  9  7.35588623547039133e-01
 10  3.88554137817893578e-07
 11  1.79577732713801189e-13
 12 -9.96484368605122572e-01
 13  1.84764326588064812e-06
 14 -3.18613249471041829e-13
 15  6.91972594693418758e-04
 16  1.48155668666885237e-15
 17  1.32288267683345207e-17
 18  8.96044212070702152e-03
 19 -3.76243230474420245e-08
 20  7.82611930256082826e-03
 21 -1.12953013675196187e-15
 22  8.03121420061488171e-17
 23  2.14459687450306276e-03
 24  2.10367173229291434e-07
 25 -5.09105737835735140e-16
 26 -2.55566342797809406e-03
 27 -2.25080155745840887e-08
 28 -2.21273328717894457e-16
 29  4.21183560164498105e-17
 30 -4.17647622204661215e-03
 31  1.08429357262973911e-08
 32 -6.87239673450208838e-02
 33 -4.75878415769885321e-01
 34  4.89175487626413719e-01
 35  1.38622035374672201e-02
 36 -4.19022552698120488e-03
 37  3.35013350994181956e-16
 38 -6.87237279730815998e-02
 39 -4.75874964161684066e-01
 40  4.89175332225477266e-01
 41  1.38619949812828162e-02
 42  4.19054431302737229e-03
 43  5.87925199896304675e-16
 Sym= A
 Ene=  5.35163709178254843e-01
 Spin= Alpha
 Occup=  0.00000000000000000e+00
  1  2.78084933721130003e-08
  2  5.65445312784688648e-08
  3  1.82716158213243751e-08
  4 -1.30364209496090035e-06
  5  4.10619394668302071e-06
  6  4.27242298982306456e-08
  7  3.51920992333018434e-01
  8  3.40410080373490021e-16
  9  3.60990486475798227e-07
 10  7.20191457055070816e-01
 11 -1.39463553785006367e-15
 12  1.33535843628178029e-06
 13 -2.09418948846508224e+00
 14 -5.18858804967499061e-16
 15  2.42773468917213210e-08
 16  2.06757915933301965e-16
 17  1.76198150722625453e-16
 18  1.05748916327957117e-08
 19  1.15144017501227127e-02
 20 -9.05338540964755787e-08
 21 -1.81506482542537088e-16
 22 -2.97302338004685836e-16
 23 -1.45033482473902239e-08
 24 -6.10025046728546808e-02
 25  2.02738921233750391e-16
 26 -1.45590335675192914e-08
 27  1.48841340835350515e-03
 28  9.57440450117021409e-18
 29  1.72991286280888309e-16
 30 -3.15463134109329064e-08
 31 -2.28849465014486792e-03
 32 -6.19585356681812555e-02
 33 -2.74091113909632582e-02
 34  1.63770052282805056e+00
 35 -2.79809033020460007e-02
 36 -3.37321502788169303e-02
 37  3.32503447502413816e-16
 38  6.19585046769434086e-02
 39  2.74054188629195040e-02
 40 -1.63770120612373904e+00
 41  2.79811517600872042e-02
 42 -3.37324032914836924e-02
 43  6.41193712944074154e-16
 Sym= A
 Ene=  5.66643555814481670e-01
 Spin= Alpha
 Occup=  0.00000000000000000e+00
  1 -5.19583994236466687e-02
  2 -1.08169317177340296e-01
  3 -8.36061234829221234e-02
  4  2.22140208701600717e+00
  5 -4.82044367620216274e+00
  6  7.06429885733777657e-02
  7  3.19412537926683178e-07
  8  1.43696263120458893e-15
  9 -1.16287899551334797e-02
 10  5.11798945415302691e-07
 11 -5.92405741637493085e-16
 12 -1.24331534029947455e+00
 13 -2.05824050537255973e-06
 14 -8.06964718856228246e-16
 15 -1.62413065249361541e-02
 16  2.52532889641630111e-16
 17  3.19020120722185046e-17
 18 -5.81267250290487536e-03
 19  8.50080670103335116e-09
 20  4.96028938400883204e-02
 21 -2.04940923946059313e-16
 22  8.44181322287308508e-16
 23 -1.23388420854982127e-03
 24 -8.53729382115586080e-08
 25  6.41961452247845633e-17
 26  4.77592426468573771e-03
 27 -3.46208135661911593e-09
 28 -1.36392417186725846e-17
 29 -4.69852789887778051e-17
 30  1.08194801771344124e-02
 31 -2.90332183691499288e-09
 32 -2.07184770325949015e-02
 33  9.18516561205754867e-01
 34  9.69869814200339575e-01
 35 -6.75790947456624408e-02
 36 -5.27371444725474939e-02
 37  9.04943578616443694e-16
 38 -2.07183603055101362e-02
 39  9.18516428768519577e-01
 40  9.69865470932665619e-01
 41 -6.75790289230312202e-02
 42  5.27370652413174934e-02
 43  5.13010277046415409e-16
 Sym= A
 Ene=  1.10950250758043611e+00
 Spin= Alpha
 Occup=  0.00000000000000000e+00
  1  3.75487320371830757e-03
  2  9.59973254853290978e-03
  3 -3.52808432822516657e-02
  4 -9.23951636770799500e-02
  5  9.38617406279205646e-01
  6  8.38993543237773615e-02
  7 -1.55746198193584021e-08
  8  1.54014945310450223e-15
  9  1.44519619358170842e-01
 10  1.52195347830256198e-07
 11  7.34793523232313986e-16
 12  5.83904923776794038e-01
 13  2.68048290804601532e-07
 14  2.12465229407305955e-15
 15 -2.09285465629796086e-04
 16 -2.71645580929386029e-17
 17 -7.31747545875819958e-16
 18 -1.27411919668308921e-02
 19  9.17076400629602724e-10
 20  1.41352941664785819e-01
 21 -8.66808335126445609e-15
 22 -3.83530481841574096e-14
 23 -5.12521675014853018e-01
 24  2.30951023885056566e-07
 25 -1.43478652440645421e-17
 26 -2.93779276746062397e-03
 27 -2.44275270001378135e-09
 28 -6.20500227635587498e-17
 29  7.36433734030091213e-16
 30 -8.34931248149968150e-03
 31  3.08228330334603893e-08
 32  3.64454491137009423e-02
 33 -5.90356069866825539e-01
 34 -5.38849266397321419e-02
 35 -3.03360272343255910e-01
 36  2.94733807740092779e-01
 37 -3.50911303827472809e-14
 38  3.64454502529132501e-02
 39 -5.90355217428198409e-01
 40 -5.38847431358957310e-02
 41 -3.03360607131249793e-01
 42 -2.94733692681789394e-01
 43  2.62802103153010674e-14
 Sym= A
 Ene=  1.12816871741803393e+00
 Spin= Alpha
 Occup=  0.00000000000000000e+00
  1  2.09782602258815273e-16
  2  4.72587523186045120e-16
  3  1.21849596437016912e-17
  4 -1.29281139969494388e-14
  5  7.53714336475472144e-14
  6  5.23108709785068545e-15
  7  7.13491852479800867e-16
  8  2.88319534533112856e-08
  9  1.03904109621110776e-14
 10 -5.39721046818867351e-15
 11 -1.45643146498492577e-07
 12  4.34020700926481315e-14
 13 -2.99402927471387225e-15
 14  2.00233379599422415e-07
 15  4.87647485670785939e-18
 16  3.12394387368085358e-09
 17  9.64587746998648264e-03
 18 -1.10337052902637991e-15
 19  1.00942906962126927e-16
 20  1.15558539554409128e-14
 21 -2.70344609747558894e-07
 22  5.44925996883653063e-01
 23 -3.72472059949033878e-14
 24 -4.49116517213810261e-15
 25  1.50124924903484952e-08
 26 -1.41917331873447654e-16
 27  3.72991905567916274e-16
 28 -3.80372805430203552e-09
 29 -8.81350158714248010e-03
 30 -8.28718343455652317e-16
 31 -1.01051770619342042e-16
 32  2.06993372618374792e-15
 33 -3.59834770400390712e-14
 34 -5.90739144185845342e-15
 35 -2.35632539291051625e-14
 36  1.85924670872200308e-14
 37  4.21058405917249856e-01
 38  5.14374437291600643e-15
 39 -5.27298449611661660e-14
 40 -4.03844656939202471e-15
 41 -1.92157491674247124e-14
 42 -2.30013644512410599e-14
 43 -4.21058844680800071e-01
 Sym= A
 Ene=  1.23677740270649061e+00
 Spin= Alpha
 Occup=  0.00000000000000000e+00
  1  1.79036724372808218e-16
  2  5.79568430294695316e-16
  3 -1.29029860606139178e-15
  4 -7.27605040506112912e-15
  5  2.19366023016027180e-14
  6 -6.77285001651691937e-16
  7 -1.58460354762960837e-15
  8 -1.01374775390413160e-01
  9  3.57908590749388169e-16
 10  5.86587172873274119e-15
 11 -4.45699394473602420e-02
 12  1.20786945377041219e-14
 13  6.58849221769459926e-15
 14 -2.16528948848511538e-01
 15 -3.48836172032706374e-17
 16  2.48289736189369250e-03
 17  8.81491367201361168e-09
 18 -2.10714783092109088e-16
 19 -1.97598309042367708e-16
 20  1.64996788554434918e-15
 21  6.77548834816204981e-01
 22  2.00575068096572095e-07
 23 -5.75808872145023783e-15
 24  5.80339323891600575e-15
 25  3.46527238171303372e-03
 26  3.09681271039215630e-16
 27 -2.18619513731744949e-16
 28  1.33061642770888056e-02
 29 -2.36477598384326581e-08
 30  1.93270038357169432e-17
 31  2.23288679607636478e-16
 32  2.69526629259864389e-15
 33 -2.08977848656966447e-14
 34 -1.74754912003663325e-15
 35 -2.66516606004393620e-15
 36  3.06801810018170154e-15
 37  3.77326258988691654e-01
 38 -3.61063618686626478e-15
 39  5.84319588507906745e-15
 40 -5.26005360953767474e-15
 41 -8.66976696174321558e-15
 42 -1.55183629270541215e-15
 43  3.77325916679214224e-01
 Sym= A
 Ene=  1.47014530731776882e+00
 Spin= Alpha
 Occup=  0.00000000000000000e+00
  1  1.61674336369758148e-08
  2  6.42943892277685903e-08
  3 -9.18670068071415613e-07
  4  3.45230375263224151e-06
  5  2.57402330536620028e-06
  6 -2.21150931611210168e-07
  7 -1.14003158128730173e-01
  8 -1.12169003325256037e-15
  9  1.77293161463621927e-06
 10  9.13245442885844305e-01
 11  1.49009111406556302e-15
 12  1.28385407400647425e-06
 13  9.63853312231475856e-01
 14 -1.29883000639089198e-15
 15 -3.62990500760392229e-09
 16  3.56046552421163587e-17
 17  5.02566058285066602e-17
 18  7.76501988452961355e-11
 19 -7.33595275117745419e-03
 20 -1.08764525768515344e-06
 21 -7.02162023423279870e-15
 22  1.77467625069869545e-15
 23 -1.64405588940752733e-07
 24  1.20132601169584041e+00
 25 -1.53107276973056529e-16
 26 -8.50876502449246605e-08
 27 -5.29184980183893192e-02
 28 -1.08395838915000852e-16
 29 -1.49156122614138090e-16
 30 -1.55605342084023835e-07
 31  3.79036645107500708e-02
 32  3.66355566367361773e-01
 33 -2.17860672450752491e+00
 34  5.19813078114595761e-01
 35  4.20488036095867546e-01
 36  1.65661093589532044e-01
 37  1.63939300695395941e-15
 38 -3.66355044430012267e-01
 39  2.17859932978726833e+00
 40 -5.19812571183412953e-01
 41 -4.20486580589804260e-01
 42  1.65659366710991240e-01
 43 -1.82364897135653009e-15
 Sym= A
 Ene=  1.57287765743452046e+00
 Spin= Alpha
 Occup=  0.00000000000000000e+00
  1 -1.53494677754162281e-02
  2 -5.09917024261948779e-02
  3  3.89111779322729334e-01
  4 -6.93134502128358587e-01
  5 -1.84129245419470555e+00
  6  9.69557071440983326e-02
  7  3.38554035779354442e-08
  8 -4.90796550056419862e-16
  9 -5.09312392714123097e-01
 10 -9.23046237127650835e-07
 11  4.82904912187294078e-16
 12 -9.39234715988664481e-01
 13  4.69552937006514827e-07
 14 -7.99494808588127145e-16
 15 -3.32434579918118112e-03
 16  3.90718706245755389e-17
 17 -1.39966046718626266e-17
 18  2.15469038688085972e-03
 19  2.05576506522175106e-09
 20  1.11398881504626357e+00
 21 -8.59244037982229881e-16
 22  4.26873806067804022e-16
 23  2.90202425767337180e-01
 24  1.19013385324989683e-07
 25  1.52528347320028841e-16
 26  3.67815626345854851e-02
 27  3.45332445261325041e-08
 28 -9.37502874381321739e-18
 29 -2.26851509963850402e-16
 30  5.46673803143408743e-02
 31 -3.19886992947582900e-08
 32 -3.42779233431575570e-01
 33  2.07350895792507117e+00
 34 -1.95599869681093191e-01
 35 -1.36620679119352190e-01
 36 -2.21296269224284636e-01
 37 -4.52497143228597433e-16
 38 -3.42779889307058216e-01
 39  2.07350847401145399e+00
 40 -1.95600307991579958e-01
 41 -1.36620617918797094e-01
 42  2.21294779901026861e-01
 43  2.02529038157178144e-15
 Sym= A
 Ene=  1.68439683746962299e+00
 Spin= Alpha
 Occup=  0.00000000000000000e+00
  1 -3.26753682492454613e-09
  2 -3.17415844154204437e-09
  3 -2.19310230760230318e-07
  4  1.33286904965005569e-06
  5 -8.11785971081250829e-07
  6 -1.06667103655964312e-07
  7 -1.71119731200577274e-01
  8 -5.07126564493223770e-16
  9  8.07755248170242712e-07
 10  3.19200875449839216e-01
 11  3.27938425464705680e-16
 12 -4.99349731163279482e-07
 13 -3.81435639959309014e-01
 14  1.34436138448118636e-16
 15 -2.30085637367200034e-09
 16  1.04438120365110177e-16
 17  7.62525556821795990e-17
 18 -1.87352583663719995e-08
 19 -1.15784964336260020e-02
 20  4.81909443349714013e-07
 21  1.12542587607347125e-15
 22 -6.57922013891949290e-17
 23 -3.43324080558397044e-08
 24  4.66038164066261362e-01
 25 -4.61106986786821091e-16
 26 -3.36065251916411533e-08
 27 -2.05788478654493727e-02
 28  2.65972099743632312e-16
 29  4.21283034217013703e-16
 30 -2.92634064078425549e-08
 31  1.98770773619661029e-02
 32  1.26872435281365270e-01
 33 -4.80903385086195012e-01
 34  3.81763217545594946e-01
 35 -5.23768899347216044e-01
 36  5.74155517008436145e-01
 37 -6.60648108918576166e-16
 38 -1.26872449321681208e-01
 39  4.80903025334088352e-01
 40 -3.81762882025934558e-01
 41  5.23769683257333973e-01
 42  5.74154894982545905e-01
 43 -1.37301481218915993e-15
 Sym= A
 Ene=  1.91522392026386212e+00
 Spin= Alpha
 Occup=  0.00000000000000000e+00
  1  1.43367547721031247e-02
  2  6.12702399417123858e-02
  3 -7.92019459420355010e-01
  4  2.53410686731587642e+00
  5 -1.37685454417470987e-01
  6 -4.17129075017496187e-01
  7 -5.80571242407965791e-08
  8 -2.11929601301646514e-15
  9  1.32126995799630920e+00
 10  1.59301327551010761e-06
 11  2.40126879539252800e-15
 12 -7.17361595244169481e-02
 13 -3.16066506396055376e-07
 14 -1.96742873097633245e-15
 15  4.14917163717935106e-03
 16 -2.64694482913765334e-16
 17 -5.99446813634021463e-17
 18  1.43704624016047786e-03
 19  3.44951633746519382e-08
 20  1.36276502074405420e-01
 21  6.01773325340429948e-17
 22  2.89100223198878444e-15
 23 -2.32016226390442754e-01
 24 -2.57671249762357692e-07
 25  4.92925292971208931e-17
 26 -6.56628921059070336e-02
 27 -3.15472992080215879e-08
 28  9.59921540894417959e-17
 29  2.28002417300599447e-16
 30 -1.43257445632561375e-01
 31  4.62860979491828934e-08
 32  6.57310035473177345e-01
 33 -1.89718231445936669e+00
 34  5.06288206798436780e-01
 35  5.92612435353749967e-01
 36  5.41047884337941265e-01
 37 -1.65959699489480770e-15
 38  6.57311012735609212e-01
 39 -1.89718115000527621e+00
 40  5.06288183867131036e-01
 41  5.92610611028317802e-01
 42 -5.41046786595184459e-01
 43  4.12706987751140362e-15
 Sym= A
 Ene=  1.98469811679647989e+00
 Spin= Alpha
 Occup=  0.00000000000000000e+00
  1  3.63262812823292353e-16
  2  8.23073580527778936e-16
  3 -2.70008320817550209e-15
  4 -4.29903583348600602e-15
  5 -1.80488611072198516e-15
  6 -3.48824529119226257e-15
  7 -6.00836547731787161e-15
  8 -3.31522086544367378e-01
  9  2.07976234141598409e-16
 10  2.06098861123198948e-14
 11  1.78427527978870487e-01
 12 -2.44638645212248839e-15
 13 -7.74909944371913181e-15
 14 -4.93080338188462697e-01
 15 -1.66948389609336358e-16
 16  7.02548068645906729e-03
 17 -2.25217644646372024e-08
 18 -8.09395018511530856e-17
 19 -3.39176120227457323e-16
 20 -7.11016476630818049e-17
 21 -8.73494477183213269e-01
 22  3.51391661305631832e-06
 23 -1.20081316058599261e-15
 24 -2.20933514799066301e-15
 25 -5.67810005954120459e-03
 26  3.18612560624789864e-16
 27 -9.58343856555001635e-16
 28 -1.54250591543559010e-02
 29 -5.56225856842820627e-08
 30  6.67890359959763288e-16
 31  2.41636238681183724e-16
 32  1.12872090949706071e-15
 33 -4.17761889721771483e-15
 34  3.68824281253072617e-15
 35  3.42666390068973663e-15
 36  3.68119062630486986e-15
 37  7.52613014757567589e-01
 38 -4.53289254394148092e-15
 39  1.66313443182996310e-14
 40 -5.92056711226969759e-15
 41 -6.91856708831610112e-15
 42  1.14062416141409504e-14
 43  7.52617776764675561e-01
 Sym= A
 Ene=  2.03541913818242737e+00
 Spin= Alpha
 Occup=  0.00000000000000000e+00
  1  2.25176769560301930e-16