[Molden Format]
[Atoms] (AU)
N    1    7        -0.101484417824       0.042802091602       0.068436017810
H    2    1         1.386989136774      -0.428111002546       1.186385543571
H    3    1         0.546613402813       1.354670877530      -1.175145429881
H    4    1        -0.523542491817      -1.521267127815      -0.962114115933
[GTO]
  1 0
 s    6  1.00
     4173.5110000000         0.0018348000
      627.4579000000         0.0139950000
      142.9021000000         0.0685870000
       40.2343300000         0.2322410000
       12.8202100000         0.4690700000
        4.3904370000         0.3604550000
 s    3  1.00
       11.6263580000        -0.1149610000
        2.7162800000        -0.1691180000
        0.7722180000         1.1458520000
 p    3  1.00
       11.6263580000         0.0675800000
        2.7162800000         0.3239070000
        0.7722180000         0.7408950000
 s    1  1.00
        0.2120313000         1.0000000000
 p    1  1.00
        0.2120313000         1.0000000000
 d    1  1.00
        0.8000000000         1.0000000000

  2 0
 s    3  1.00
       18.7311370000         0.0334946000
        2.8253937000         0.2347269500
        0.6401217000         0.8137573300
 s    1  1.00
        0.1612778000         1.0000000000

  3 0
 s    3  1.00
       18.7311370000         0.0334946000
        2.8253937000         0.2347269500
        0.6401217000         0.8137573300
 s    1  1.00
        0.1612778000         1.0000000000

  4 0
 s    3  1.00
       18.7311370000         0.0334946000
        2.8253937000         0.2347269500
        0.6401217000         0.8137573300
 s    1  1.00
        0.1612778000         1.0000000000

[MO]
 Sym= A
 Ene= -1.39693737542762335e+01
 Spin= Alpha
 Occup=  1.00000000000000000e+00
  1  9.92355485832768336e-01
  2  3.64168493421613143e-02
  3  9.99592871810367706e-04
  4 -4.21919140779273747e-04
  5 -6.74229627682717365e-04
  6  4.06208848809148839e-03
  7 -2.73569379641608117e-04
  8  1.15427495386332031e-04
  9  1.84517522874573400e-04
 10 -8.87309341286713314e-03
 11 -8.82271565051888189e-03
 12 -8.83970248590608756e-03
 13  5.17299563374702732e-05
 14  8.26740479564353332e-05
 15 -3.47795478478824975e-05
 16  2.10911437215521939e-04
 17 -3.87485479077217425e-04
 18  2.10943526857477434e-04
 19 -3.87475479043812728e-04
 20  2.10850713109523203e-04
 21 -3.87498410360875877e-04
 Sym= A
 Ene= -7.65438585510736291e-01
 Spin= Alpha
 Occup=  1.00000000000000000e+00
  1 -1.98504131004593021e-01
  2  4.12503659643624843e-01
  3  9.44016087318820113e-02
  4 -3.98635085945762968e-02
  5 -6.36740045729374121e-02
  6  4.25359759923075065e-01
  7  4.82752065247299689e-02
  8 -2.03727604555285387e-02
  9 -3.25579265890921024e-02
 10  1.35406915987233787e-04
 11  6.97972184234147211e-03
 12  4.67185791124545904e-03
 13  7.03146361174818938e-03
 14  1.12354776540045560e-02
 15 -4.73537812445138338e-03
 16  1.40124721160733406e-01
 17  1.15410100050279858e-02
 18  1.40106231693534755e-01
 19  1.15399781905915280e-02
 20  1.40149932915406839e-01
 21  1.15411055908830537e-02
 Sym= A
 Ene= -4.01540106021457011e-01
 Spin= Alpha
 Occup=  1.00000000000000000e+00
  1 -6.66048880349539712e-07
  2 -1.62823487926397139e-06
  3  2.82497980194851339e-01
  4  3.28196914240541260e-01
  5  2.13484223352368718e-01
  6  2.08384191698682314e-05
  7  1.44215221820653910e-01
  8  1.67536724657912056e-01
  9  1.08974804947394324e-01
 10  2.43138845110402284e-02
 11 -1.66029545971342375e-02
 12 -7.70918418640647706e-03
 13  6.34119123966128944e-03
 14  3.58844566878957797e-03
 15 -4.47986678500328153e-02
 16  1.65187109174511876e-01
 17  1.13800907751537186e-01
 18  1.13962580386091542e-01
 19  7.85127246010939167e-02
 20 -2.79122973820008169e-01
 21 -1.92277157625917766e-01
 Sym= A
 Ene= -4.01498068930261132e-01
 Spin= Alpha
 Occup=  1.00000000000000000e+00
  1 -3.16917386415550650e-06
  2  5.70982883248919661e-06
  3 -1.02720596903870282e-01
  4  3.16153902413204291e-01
  5 -3.50113791962458176e-01
  6  1.92399135812120914e-05
  7 -5.24411776110063899e-02
  8  1.61410423325070107e-01
  9 -1.78750349562967231e-01
 10 -1.34568717717774584e-02
 11 -3.02967564632716183e-03
 12  1.64870646718157828e-02
 13  3.52819758372757350e-02
 14 -3.85131390410833607e-02
 15 -1.61246671556110679e-02
 16 -2.26935075586818358e-01
 17 -1.56358205551957757e-01
 18  2.56516622539069872e-01
 19  1.76746663945527988e-01
 20 -2.95691084490074182e-02
 21 -2.03705912744409148e-02
 Sym= A
 Ene= -1.97246811074853423e-01
 Spin= Alpha
 Occup=  1.00000000000000000e+00
  1 -7.65011466536588136e-02
  2  1.64849608763891403e-01
  3 -4.30686140490457170e-01
  4  1.81772411725508065e-01
  5  2.90495668745463509e-01
  6  3.39777323093726824e-01
  7 -3.68444925717727856e-01
  8  1.55499077009377040e-01
  9  2.48511948113072367e-01
 10 -2.22873232160635260e-02
 11  4.58970727623644967e-03
 12 -4.46146821379748287e-03
 13  2.76074209517171536e-02
 14  4.41158787065171684e-02
 15 -1.86204238670197621e-02
 16 -6.33741063918049491e-02
 17 -6.60538638075249818e-02
 18 -6.33758912696413407e-02
 19 -6.60592616902745677e-02
 20 -6.33811285717129219e-02
 21 -6.60511752210598546e-02
 Sym= A
 Ene=  5.93478488359913264e-02
 Spin= Alpha
 Occup=  0.00000000000000000e+00
  1 -1.28154386952217120e-01
  2  1.88110354171717065e-01
  3  1.61264494585015100e-01
  4 -6.79264613250953747e-02
  5 -1.08727648895390411e-01
  6  1.78112173812275110e+00
  7  3.58017633366557508e-01
  8 -1.50875885208098803e-01
  9 -2.41400098872277452e-01
 10 -2.76870576681487249e-02
 11 -3.05165415335422671e-02
 12 -2.95644189089414727e-02
 13 -2.89431685842431131e-03
 14 -4.63401215168220918e-03
 15  1.95804204174645710e-03
 16 -6.71786281374327776e-02
 17 -9.07710628279595588e-01
 18 -6.72072418348583639e-02
 19 -9.07841019975150654e-01
 20 -6.71439238731004612e-02
 21 -9.07516570639274267e-01
 Sym= A
 Ene=  1.44204033736231557e-01
 Spin= Alpha
 Occup=  0.00000000000000000e+00
  1 -1.48834020548724538e-05
  2  1.82781178043202574e-05
  3  7.41129493328813588e-02
  4 -3.07173237261505694e-01
  5  3.02053520851790602e-01
  6  3.21871698760981635e-04
  7  1.68196116358710845e-01
  8 -6.97059847806801858e-01
  9  6.85412981538138566e-01
 10  2.12774325672445872e-04
 11  1.33102177708660039e-02
 12 -1.35370775740933126e-02
 13 -1.50544126794437370e-02
 14  1.92774133260935994e-03
 15 -5.23013490015392796e-03
 16 -9.46699803968650833e-02
 17 -1.22684968861777843e+00
 18  1.16699095010685691e-01
 19  1.51195132062662663e+00
 20 -2.20180931432938862e-02
 21 -2.85528771477208454e-01
 Sym= A
 Ene=  1.44238865404764077e-01
 Spin= Alpha
 Occup=  0.00000000000000000e+00
  1  2.43713515341518830e-05
  2 -3.14453085890798413e-05
  3  2.61848582945794439e-01
  4  2.75480857367922272e-01
  5  2.15900082974416097e-01
  6 -4.99919722154137740e-04
  7  5.94266932894017441e-01
  8  6.25256007103809908e-01
  9  4.90032427094941936e-01
 10  1.35443904880803885e-02
 11 -1.89271220617939664e-03
 12 -1.16292932102859421e-02
 13  1.82401927441210449e-02
 14 -5.63026242946712945e-05
 15 -8.52467436159044627e-04
 16 -8.00542782972032269e-02
 17 -1.03773708025231870e+00
 18 -4.19186316234560694e-02
 19 -5.43346622972218363e-01
 20  1.21971750933721146e-01
 21  1.58173214000889706e+00
 Sym= A
 Ene=  6.46984644236667683e-01
 Spin= Alpha
 Occup=  0.00000000000000000e+00
  1  1.98438866670893881e-06
  2  6.25883643328411987e-06
  3  1.13034805713058253e-01
  4 -1.83814522376589795e-01
  5  2.82421483129226769e-01
  6 -1.10508282439809028e-04
  7 -3.64435124023101797e-01
  8  5.92701712145014548e-01
  9 -9.10938313735702443e-01
 10  7.51307282063814336e-02
 11 -8.71997825924753778e-02
 12  1.20570914283885579e-02
 13 -1.21588818526955800e-01
 14  2.06188907952985112e-01
 15  7.96499708826295671e-02
 16  6.98885540540997163e-01
 17 -1.07916475664147471e-01
 18 -6.36062389079122825e-01
 19  9.84266594403183509e-02
 20 -6.28622901024201153e-02
 21  9.66228798494801581e-03
 Sym= A
 Ene=  6.47008441081273644e-01
 Spin= Alpha
 Occup=  0.00000000000000000e+00
  1 -1.37264834772392604e-05
  2 -2.61013817378057975e-05
  3  1.90047537475104056e-01
  4  2.80788718705700380e-01
  5  1.06713434469688714e-01
  6  3.90512779944403906e-04
  7 -6.13586671106122639e-01
  8 -9.05587230220777140e-01
  9 -3.43985730932923339e-01
 10  3.06019077418568375e-02
 11 -5.92651679944785556e-02
 12  2.86830426409635068e-02
 13 -7.76339763173636010e-02
 14 -1.68317511879125040e-02
 15 -2.71219753247375905e-01
 16  3.30868066908053871e-01
 17 -5.09751708082568922e-02
 18  4.39768972903747168e-01
 19 -6.79294313846347114e-02
 20 -7.70719868878740111e-01
 21  1.18478966330709881e-01
 Sym= A
 Ene=  6.79077460177744396e-01
 Spin= Alpha
 Occup=  0.00000000000000000e+00
  1 -1.96035128091291630e-02
  2  1.53398881950192134e-01
  3 -7.72935590246452198e-01
  4  3.26021771864210275e-01
  5  5.21269113331379486e-01
  6  1.02735001540893392e-01
  7  8.76696733376708948e-01
  8 -3.69481099249727662e-01
  9 -5.91135923822745379e-01
 10  4.11566429417677543e-02
 11  4.11577536609202405e-02
 12  4.11396101638223238e-02
 13  2.43532847336851487e-06
 14  4.38137276771741921e-06
 15  1.25261686880157426e-04
 16 -3.09069172352556334e-02
 17 -1.54601718536339722e-01
 18 -3.10647145174319690e-02
 19 -1.54597262105977934e-01
 20 -3.06071180798185988e-02
 21 -1.54606553555636544e-01
 Sym= A
 Ene=  8.64785528345044630e-01
 Spin= Alpha
 Occup=  0.00000000000000000e+00
  1  6.42861393634121389e-04
  2 -6.73483748494165847e-03
  3  1.62780252192429337e-01
  4 -6.92009886754933912e-01
  5  6.78267707927539876e-01
  6  9.76246335330749858e-03
  7 -2.41945480816699171e-01
  8  1.01820810465545208e+00
  9 -9.95042140148669652e-01
 10 -4.72141880128344807e-02
 11  4.31539442749167557e-02
 12  1.70238221355419332e-03
 13  7.59517866955364690e-02
 14 -1.42696547023298814e-01
 15 -1.03194411430381369e-01
 16 -4.08853472209187330e-01
 17  1.14674437970351906e+00
 18  5.21833182708516863e-01
 19 -1.43249409007764572e+00
 20 -9.20274806434377840e-02
 21  2.68707677378452026e-01
 Sym= A
 Ene=  8.64851461254944054e-01
 Spin= Alpha
 Occup=  0.00000000000000000e+00
  1 -9.70944909203432763e-04
  2  1.01974879611662281e-02
  3  5.91692981538300855e-01
  4  6.15520475769533393e-01
  5  4.86183128514023954e-01
  6 -1.48042943515838982e-02
  7 -8.65495997915931792e-01
  8 -9.06322142149542098e-01
  9 -7.17268730071216276e-01
 10 -3.78880311008717580e-02
 11  5.76859384747539575e-02
 12 -1.62265757536701992e-02
 13  6.64185131508618909e-02
 14 -2.95717738548724775e-02
 15  1.72256858361691328e-01
 16 -3.65071962874156608e-01
 17  9.90962525004000727e-01
 18 -1.93423401453256233e-01
 19  5.15317421325906189e-01
 20  5.26824288396955054e-01
 21 -1.48047840004327869e+00
 Sym= A
 Ene=  8.67541447404042376e-01
 Spin= Alpha
 Occup=  0.00000000000000000e+00
  1 -6.53199279998229881e-02
  2  6.83805963275994078e-01
  3  1.59377501611345146e-01
  4 -8.63312147809442015e-02
  5 -1.12936281192628690e-01
  6 -9.92698911009661455e-01
  7  4.21434612104438708e-02
  8  1.01604358763950457e-02
  9 -2.04048733277630637e-02
 10  1.49151352281082977e-01
 11  2.32171446799585152e-02
 12  6.61649096580133600e-02
 13 -1.29092955032999251e-01
 14 -2.06845442939757096e-01
 15  8.32550307573676623e-02
 16 -7.08433752796271188e-01
 17  5.73504092261650444e-01
 18 -7.01777252245754490e-01
 19  5.55217840434915400e-01
 20 -7.18578211495418451e-01
 21  6.01672769609659985e-01
 Sym= A
 Ene=  1.10458788576525668e+00
 Spin= Alpha
 Occup=  0.00000000000000000e+00
  1  8.36642268622551644e-02
  2  1.55601042607059004e+00
  3  1.11996371561808097e-01
  4 -4.72510112963629783e-02
  5 -7.55325141090176372e-02
  6 -4.10401286436623192e+00
  7 -6.36219139664634059e-01
  8  2.68518174115220387e-01
  9  4.29068143615778108e-01
 10  1.76609503004757890e-01
 11  3.57607753864547517e-01
 12  2.96631632266825707e-01
 13  1.85988586585046939e-01
 14  2.97154709783239268e-01
 15 -1.25449510919217494e-01
 16  3.32245531522754822e-01
 17  8.05616522921256184e-01
 18  3.32275193787791134e-01
 19  8.05450247560538846e-01
 20  3.32117693683548876e-01
 21  8.05881281187217802e-01
 Sym= A
 Ene=  1.60266900492507114e+00
 Spin= Alpha
 Occup=  0.00000000000000000e+00
  1 -3.72039520870516464e-06
  2 -2.51048871083599816e-05
  3 -1.08913835932545767e-02
  4 -1.43584366240448718e-02
  5 -7.16675519561011439e-03
  6  9.73702969614059842e-05
  7 -2.63521608747850460e-02
  8 -3.47676577627639011e-02
  9 -1.73606271725366169e-02
 10  7.12291239957839273e-01
 11 -1.96320885507725446e-01
 12 -5.15981550516399934e-01
 13  1.16455095497120942e+00
 14 -2.18579417692397332e-02
 15  1.20669249791928251e-01
 16  1.97811386322052432e-02
 17  2.41722381020120173e-03
 18  1.92396010136915326e-02
 19  2.34807122990931833e-03
 20 -3.91124111616943521e-02
 21 -4.80295137639890398e-03
 Sym= A
 Ene=  1.60268402259122800e+00
 Spin= Alpha
 Occup=  0.00000000000000000e+00
  1  7.85900320898333457e-07
  2  4.90685367664964089e-06
  3 -5.21378446800460638e-03
  4  1.13609234776644759e-02
  5 -1.48343718341069786e-02
  6 -2.12838047578943021e-05
  7 -1.26201942073084061e-02
  8  2.75000382690234607e-02
  9 -3.59070909462078994e-02
 10  1.05505640967961278e-01
 11  7.37501031615866443e-01
 12 -8.43004508454402113e-01
 13 -5.92378382000285475e-01
 14  1.13399881368973637e-02
 15 -3.36243956014023515e-01
 16  3.37056564285608401e-02
 17  4.12467542034215297e-03
 18 -3.40114058243820225e-02
 19 -4.15654803596633270e-03
 20  3.24975832681173495e-04
 21  4.08432128186454665e-05
 Sym= A
 Ene=  1.88036217563688424e+00
 Spin= Alpha
 Occup=  0.00000000000000000e+00
  1 -5.30133485443948990e-02
  2 -4.84178827786559796e-01
  3  1.68272267836838928e-02
  4 -7.15834252648341399e-03
  5 -1.13692688829936002e-02
  6  1.56960409116580624e+00
  7  3.62638916315503212e-01
  8 -1.52950360059121326e-01
  9 -2.44536747213714267e-01
 10 -4.76669671505200510e-01
 11  2.80880154678404270e-01
 12  2.56758147373987340e-02
 13  7.78301291459485789e-01
 14  1.24355276496696554e+00
 15 -5.24984009580145572e-01
 16 -4.71763843567104990e-01
 17 -2.14545641706102103e-01
 18 -4.71802716835216074e-01
 19 -2.14498420206105489e-01
 20 -4.71689891642092518e-01
 21 -2.14590633800933600e-01
 Sym= A
 Ene=  2.32678888447019272e+00
 Spin= Alpha
 Occup=  0.00000000000000000e+00
  1  1.21853702238151527e-05
  2  3.23796642765852369e-06
  3 -1.04342139980463482e-02
  4  4.82225015978627811e-02
  5 -4.55943901182039660e-02
  6 -2.36521060928459307e-04
  7 -1.04229012579345817e-01
  8  4.82469948252224334e-01
  9 -4.56289920514036829e-01
 10 -4.40320687305575165e-01
 11  3.19431348667601867e-01
 12  1.20920497132370269e-01
 13  8.29915122826261120e-01
 14 -1.42936542694595636e+00
 15 -1.00218362471260503e+00
 16  6.88804541609361776e-01
 17 -2.01197144623932352e-02
 18 -8.74088228625975461e-01
 19  2.55960186795504384e-02
 20  1.85545209325919919e-01
 21 -5.37276350712107172e-03
 Sym= A
 Ene=  2.32690914313970554e+00
 Spin= Alpha
 Occup=  0.00000000000000000e+00
  1  1.87764613558227547e-05
  2 -8.34033501746367417e-06
  3  4.05362785221024535e-02
  4  4.12556759580637866e-02
  5  3.43611538995094445e-02
  6 -3.28647318940184104e-04
  7  4.05395567560894676e-01
  8  4.12287144969824770e-01
  9  3.43259727740230836e-01
 10  4.99255769818504114e-01
 11 -5.82562307455398165e-01
 12  8.33615634982679404e-02
 13 -5.58366784067080402e-01
 14  2.89124755496652341e-01
 15 -1.66469663137333934e+00
 16 -6.11749860267743362e-01
 17  1.78559719352709353e-02
 18 -2.90483263175835504e-01
 19  8.48099661190546313e-03
 20  9.02624145973230596e-01
 21 -2.62097794255704460e-02
 Sym= A
 Ene=  3.58598465393334642e+00
 Spin= Alpha
 Occup=  0.00000000000000000e+00
  1  4.68107270704127498e-01
  2 -1.15099345223014971e+00
  3  7.72110707326045392e-02
  4 -3.26106604796958244e-02
  5 -5.20818444732970356e-02
  6 -3.23329633711331610e+00
  7 -2.57581404983028506e-01
  8  1.08693683693741008e-01
  9  1.73713628488420646e-01
 10  1.52014222360901341e+00
 11  1.50736746712274083e+00
 12  1.51165763979704426e+00
 13 -1.31479320262295630e-02
 14 -2.09909805986265678e-02
 15  8.96124579103499061e-03
 16 -1.38278535120178819e-01
 17  5.73465072590841896e-01
 18 -1.38229864019858456e-01
 19  5.73398759936737279e-01
 20 -1.38377401881090378e-01
 21  5.73577322330770634e-01
 Sym= A
 Ene= -1.39693737542762335e+01
 Spin= Beta
 Occup=  1.00000000000000000e+00
  1  9.92355485832768336e-01
  2  3.64168493421613143e-02
  3  9.99592871810367706e-04
  4 -4.21919140779273747e-04
  5 -6.74229627682717365e-04
  6  4.06208848809148839e-03
  7 -2.73569379641608117e-04
  8  1.15427495386332031e-04
  9  1.84517522874573400e-04
 10 -8.87309341286713314e-03
 11 -8.82271565051888189e-03
 12 -8.83970248590608756e-03
 13  5.17299563374702732e-05
 14  8.26740479564353332e-05
 15 -3.47795478478824975e-05
 16  2.10911437215521939e-04
 17 -3.87485479077217425e-04
 18  2.10943526857477434e-04
 19 -3.87475479043812728e-04
 20  2.10850713109523203e-04
 21 -3.87498410360875877e-04
 Sym= A
 Ene= -7.65438585510736291e-01
 Spin= Beta
 Occup=  1.00000000000000000e+00
  1 -1.98504131004593021e-01
  2  4.12503659643624843e-01
  3  9.44016087318820113e-02
  4 -3.98635085945762968e-02
  5 -6.36740045729374121e-02
  6  4.25359759923075065e-01
  7  4.82752065247299689e-02
  8 -2.03727604555285387e-02
  9 -3.25579265890921024e-02
 10  1.35406915987233787e-04
 11  6.97972184234147211e-03
 12  4.67185791124545904e-03
 13  7.03146361174818938e-03
 14  1.12354776540045560e-02
 15 -4.73537812445138338e-03
 16  1.40124721160733406e-01
 17  1.15410100050279858e-02
 18  1.40106231693534755e-01
 19  1.15399781905915280e-02
 20  1.40149932915406839e-01
 21  1.15411055908830537e-02
 Sym= A
 Ene= -4.01540106021457011e-01
 Spin= Beta
 Occup=  1.00000000000000000e+00
  1 -6.66048880349539712e-07
  2 -1.62823487926397139e-06
  3  2.82497980194851339e-01
  4  3.28196914240541260e-01
  5  2.13484223352368718e-01
  6  2.08384191698682314e-05
  7  1.44215221820653910e-01
  8  1.67536724657912056e-01
  9  1.08974804947394324e-01
 10  2.43138845110402284e-02
 11 -1.66029545971342375e-02
 12 -7.70918418640647706e-03
 13  6.34119123966128944e-03
 14  3.58844566878957797e-03
 15 -4.47986678500328153e-02
 16  1.65187109174511876e-01
 17  1.13800907751537186e-01
 18  1.13962580386091542e-01
 19  7.85127246010939167e-02
 20 -2.79122973820008169e-01
 21 -1.92277157625917766e-01
 Sym= A
 Ene= -4.01498068930261132e-01
 Spin= Beta
 Occup=  1.00000000000000000e+00
  1 -3.16917386415550650e-06
  2  5.70982883248919661e-06
  3 -1.02720596903870282e-01
  4  3.16153902413204291e-01
  5 -3.50113791962458176e-01
  6  1.92399135812120914e-05
  7 -5.24411776110063899e-02
  8  1.61410423325070107e-01
  9 -1.78750349562967231e-01
 10 -1.34568717717774584e-02
 11 -3.02967564632716183e-03
 12  1.64870646718157828e-02
 13  3.52819758372757350e-02
 14 -3.85131390410833607e-02
 15 -1.61246671556110679e-02
 16 -2.26935075586818358e-01
 17 -1.56358205551957757e-01
 18  2.56516622539069872e-01
 19  1.76746663945527988e-01
 20 -2.95691084490074182e-02
 21 -2.03705912744409148e-02
 Sym= A
 Ene= -1.97246811074853423e-01
 Spin= Beta
 Occup=  1.00000000000000000e+00
  1 -7.65011466536588136e-02
  2  1.64849608763891403e-01
  3 -4.30686140490457170e-01
  4  1.81772411725508065e-01
  5  2.90495668745463509e-01
  6  3.39777323093726824e-01
  7 -3.68444925717727856e-01
  8  1.55499077009377040e-01
  9  2.48511948113072367e-01
 10 -2.22873232160635260e-02
 11  4.58970727623644967e-03
 12 -4.46146821379748287e-03
 13  2.76074209517171536e-02
 14  4.41158787065171684e-02
 15 -1.86204238670197621e-02
 16 -6.33741063918049491e-02
 17 -6.60538638075249818e-02
 18 -6.33758912696413407e-02
 19 -6.60592616902745677e-02
 20 -6.33811285717129219e-02
 21 -6.60511752210598546e-02
 Sym= A
 Ene=  5.93478488359913264e-02
 Spin= Beta
 Occup=  0.00000000000000000e+00
  1 -1.28154386952217120e-01
  2  1.88110354171717065e-01
  3  1.61264494585015100e-01
  4 -6.79264613250953747e-02
  5 -1.08727648895390411e-01
  6  1.78112173812275110e+00
  7  3.58017633366557508e-01
  8 -1.50875885208098803e-01
  9 -2.41400098872277452e-01
 10 -2.76870576681487249e-02
 11 -3.05165415335422671e-02
 12 -2.95644189089414727e-02
 13 -2.89431685842431131e-03
 14 -4.63401215168220918e-03
 15  1.95804204174645710e-03
 16 -6.71786281374327776e-02
 17 -9.07710628279595588e-01
 18 -6.72072418348583639e-02
 19 -9.07841019975150654e-01
 20 -6.71439238731004612e-02
 21 -9.07516570639274267e-01
 Sym= A
 Ene=  1.44204033736231557e-01
 Spin= Beta
 Occup=  0.00000000000000000e+00
  1 -1.48834020548724538e-05
  2  1.82781178043202574e-05
  3  7.41129493328813588e-02
  4 -3.07173237261505694e-01
  5  3.02053520851790602e-01
  6  3.21871698760981635e-04
  7  1.68196116358710845e-01
  8 -6.97059847806801858e-01
  9  6.85412981538138566e-01
 10  2.12774325672445872e-04
 11  1.33102177708660039e-02
 12 -1.35370775740933126e-02
 13 -1.50544126794437370e-02
 14  1.92774133260935994e-03
 15 -5.23013490015392796e-03
 16 -9.46699803968650833e-02
 17 -1.22684968861777843e+00
 18  1.16699095010685691e-01
 19  1.51195132062662663e+00
 20 -2.20180931432938862e-02
 21 -2.85528771477208454e-01
 Sym= A
 Ene=  1.44238865404764077e-01
 Spin= Beta
 Occup=  0.00000000000000000e+00
  1  2.43713515341518830e-05
  2 -3.14453085890798413e-05
  3  2.61848582945794439e-01
  4  2.75480857367922272e-01
  5  2.15900082974416097e-01
  6 -4.99919722154137740e-04
  7  5.94266932894017441e-01
  8  6.25256007103809908e-01
  9  4.90032427094941936e-01
 10  1.35443904880803885e-02
 11 -1.89271220617939664e-03
 12 -1.16292932102859421e-02
 13  1.82401927441210449e-02
 14 -5.63026242946712945e-05
 15 -8.52467436159044627e-04
 16 -8.00542782972032269e-02
 17 -1.03773708025231870e+00
 18 -4.19186316234560694e-02
 19 -5.43346622972218363e-01
 20  1.21971750933721146e-01
 21  1.58173214000889706e+00
 Sym= A
 Ene=  6.46984644236667683e-01
 Spin= Beta
 Occup=  0.00000000000000000e+00
  1  1.98438866670893881e-06
  2  6.25883643328411987e-06
  3  1.13034805713058253e-01
  4 -1.83814522376589795e-01
  5  2.82421483129226769e-01
  6 -1.10508282439809028e-04
  7 -3.64435124023101797e-01
  8  5.92701712145014548e-01
  9 -9.10938313735702443e-01
 10  7.51307282063814336e-02
 11 -8.71997825924753778e-02
 12  1.20570914283885579e-02
 13 -1.21588818526955800e-01
 14  2.06188907952985112e-01
 15  7.96499708826295671e-02
 16  6.98885540540997163e-01
 17 -1.07916475664147471e-01
 18 -6.36062389079122825e-01
 19  9.84266594403183509e-02
 20 -6.28622901024201153e-02
 21  9.66228798494801581e-03
 Sym= A
 Ene=  6.47008441081273644e-01
 Spin= Beta
 Occup=  0.00000000000000000e+00
  1 -1.37264834772392604e-05
  2 -2.61013817378057975e-05
  3  1.90047537475104056e-01
  4  2.80788718705700380e-01
  5  1.06713434469688714e-01
  6  3.90512779944403906e-04
  7 -6.13586671106122639e-01
  8 -9.05587230220777140e-01
  9 -3.43985730932923339e-01
 10  3.06019077418568375e-02
 11 -5.92651679944785556e-02
 12  2.86830426409635068e-02
 13 -7.76339763173636010e-02
 14 -1.68317511879125040e-02
 15 -2.71219753247375905e-01
 16  3.30868066908053871e-01
 17 -5.09751708082568922e-02
 18  4.39768972903747168e-01
 19 -6.79294313846347114e-02
 20 -7.70719868878740111e-01
 21  1.18478966330709881e-01
 Sym= A
 Ene=  6.79077460177744396e-01
 Spin= Beta
 Occup=  0.00000000000000000e+00
  1 -1.96035128091291630e-02
  2  1.53398881950192134e-01
  3 -7.72935590246452198e-01
  4  3.26021771864210275e-01
  5  5.21269113331379486e-01
  6  1.02735001540893392e-01
  7  8.76696733376708948e-01
  8 -3.69481099249727662e-01
  9 -5.91135923822745379e-01
 10  4.11566429417677543e-02
 11  4.11577536609202405e-02
 12  4.11396101638223238e-02
 13  2.43532847336851487e-06
 14  4.38137276771741921e-06
 15  1.25261686880157426e-04
 16 -3.09069172352556334e-02
 17 -1.54601718536339722e-01
 18 -3.10647145174319690e-02
 19 -1.54597262105977934e-01
 20 -3.06071180798185988e-02
 21 -1.54606553555636544e-01
 Sym= A
 Ene=  8.64785528345044630e-01
 Spin= Beta
 Occup=  0.00000000000000000e+00
  1  6.42861393634121389e-04
  2 -6.73483748494165847e-03
  3  1.62780252192429337e-01
  4 -6.92009886754933912e-01
  5  6.78267707927539876e-01
  6  9.76246335330749858e-03
  7 -2.41945480816699171e-01
  8  1.01820810465545208e+00
  9 -9.95042140148669652e-01
 10 -4.72141880128344807e-02
 11  4.31539442749167557e-02
 12  1.70238221355419332e-03
 13  7.59517866955364690e-02
 14 -1.42696547023298814e-01
 15 -1.03194411430381369e-01
 16 -4.08853472209187330e-01
 17  1.14674437970351906e+00
 18  5.21833182708516863e-01
 19 -1.43249409007764572e+00
 20 -9.20274806434377840e-02
 21  2.68707677378452026e-01
 Sym= A
 Ene=  8.64851461254944054e-01
 Spin= Beta
 Occup=  0.00000000000000000e+00
  1 -9.70944909203432763e-04
  2  1.01974879611662281e-02
  3  5.91692981538300855e-01
  4  6.15520475769533393e-01
  5  4.86183128514023954e-01
  6 -1.48042943515838982e-02
  7 -8.65495997915931792e-01
  8 -9.06322142149542098e-01
  9 -7.17268730071216276e-01
 10 -3.78880311008717580e-02
 11  5.76859384747539575e-02
 12 -1.62265757536701992e-02
 13  6.64185131508618909e-02
 14 -2.95717738548724775e-02
 15  1.72256858361691328e-01
 16 -3.65071962874156608e-01
 17  9.90962525004000727e-01
 18 -1.93423401453256233e-01
 19  5.15317421325906189e-01
 20  5.26824288396955054e-01
 21 -1.48047840004327869e+00
 Sym= A
 Ene=  8.67541447404042376e-01
 Spin= Beta
 Occup=  0.00000000000000000e+00
  1 -6.53199279998229881e-02
  2  6.83805963275994078e-01
  3  1.59377501611345146e-01
  4 -8.63312147809442015e-02
  5 -1.12936281192628690e-01
  6 -9.92698911009661455e-01
  7  4.21434612104438708e-02
  8  1.01604358763950457e-02
  9 -2.04048733277630637e-02
 10  1.49151352281082977e-01
 11  2.32171446799585152e-02
 12  6.61649096580133600e-02
 13 -1.29092955032999251e-01
 14 -2.06845442939757096e-01
 15  8.32550307573676623e-02
 16 -7.08433752796271188e-01
 17  5.73504092261650444e-01
 18 -7.01777252245754490e-01
 19  5.55217840434915400e-01
 20 -7.18578211495418451e-01
 21  6.01672769609659985e-01
 Sym= A
 Ene=  1.10458788576525668e+00
 Spin= Beta
 Occup=  0.00000000000000000e+00
  1  8.36642268622551644e-02
  2  1.55601042607059004e+00
  3  1.11996371561808097e-01
  4 -4.72510112963629783e-02
  5 -7.55325141090176372e-02
  6 -4.10401286436623192e+00
  7 -6.36219139664634059e-01
  8  2.68518174115220387e-01
  9  4.29068143615778108e-01
 10  1.76609503004757890e-01
 11  3.57607753864547517e-01
 12  2.96631632266825707e-01
 13  1.85988586585046939e-01
 14  2.97154709783239268e-01
 15 -1.25449510919217494e-01
 16  3.32245531522754822e-01
 17  8.05616522921256184e-01
 18  3.32275193787791134e-01
 19  8.05450247560538846e-01
 20  3.32117693683548876e-01
 21  8.05881281187217802e-01
 Sym= A
 Ene=  1.60266900492507114e+00
 Spin= Beta
 Occup=  0.00000000000000000e+00
  1 -3.72039520870516464e-06
  2 -2.51048871083599816e-05
  3 -1.08913835932545767e-02
  4 -1.43584366240448718e-02
  5 -7.16675519561011439e-03
  6  9.73702969614059842e-05
  7 -2.63521608747850460e-02
  8 -3.47676577627639011e-02
  9 -1.73606271725366169e-02
 10  7.12291239957839273e-01
 11 -1.96320885507725446e-01
 12 -5.15981550516399934e-01
 13  1.16455095497120942e+00
 14 -2.18579417692397332e-02
 15  1.20669249791928251e-01
 16  1.97811386322052432e-02
 17  2.41722381020120173e-03
 18  1.92396010136915326e-02
 19  2.34807122990931833e-03
 20 -3.91124111616943521e-02
 21 -4.80295137639890398e-03
 Sym= A
 Ene=  1.60268402259122800e+00
 Spin= Beta
 Occup=  0.00000000000000000e+00
  1  7.85900320898333457e-07
  2  4.90685367664964089e-06
  3 -5.21378446800460638e-03
  4  1.13609234776644759e-02
  5 -1.48343718341069786e-02
  6 -2.12838047578943021e-05
  7 -1.26201942073084061e-02
  8  2.75000382690234607e-02
  9 -3.59070909462078994e-02
 10  1.05505640967961278e-01
 11  7.37501031615866443e-01
 12 -8.43004508454402113e-01
 13 -5.92378382000285475e-01
 14  1.13399881368973637e-02
 15 -3.36243956014023515e-01
 16  3.37056564285608401e-02
 17  4.12467542034215297e-03
 18 -3.40114058243820225e-02
 19 -4.15654803596633270e-03
 20  3.24975832681173495e-04
 21  4.08432128186454665e-05
 Sym= A
 Ene=  1.88036217563688424e+00
 Spin= Beta
 Occup=  0.00000000000000000e+00
  1 -5.30133485443948990e-02
  2 -4.84178827786559796e-01
  3  1.68272267836838928e-02
  4 -7.15834252648341399e-03
  5 -1.13692688829936002e-02
  6  1.56960409116580624e+00
  7  3.62638916315503212e-01
  8 -1.52950360059121326e-01
  9 -2.44536747213714267e-01
 10 -4.76669671505200510e-01
 11  2.80880154678404270e-01
 12  2.56758147373987340e-02
 13  7.78301291459485789e-01
 14  1.24355276496696554e+00
 15 -5.24984009580145572e-01
 16 -4.71763843567104990e-01
 17 -2.14545641706102103e-01
 18 -4.71802716835216074e-01
 19 -2.14498420206105489e-01
 20 -4.71689891642092518e-01
 21 -2.14590633800933600e-01
 Sym= A
 Ene=  2.32678888447019272e+00
 Spin= Beta
 Occup=  0.00000000000000000e+00
  1  1.21853702238151527e-05
  2  3.23796642765852369e-06
  3 -1.04342139980463482e-02
  4  4.82225015978627811e-02
  5 -4.55943901182039660e-02
  6 -2.36521060928459307e-04
  7 -1.04229012579345817e-01
  8  4.82469948252224334e-01
  9 -4.56289920514036829e-01
 10 -4.40320687305575165e-01
 11  3.19431348667601867e-01
 12  1.20920497132370269e-01
 13  8.29915122826261120e-01
 14 -1.42936542694595636e+00
 15 -1.00218362471260503e+00
 16  6.88804541609361776e-01
 17 -2.01197144623932352e-02
 18 -8.74088228625975461e-01
 19  2.55960186795504384e-02
 20  1.85545209325919919e-01
 21 -5.37276350712107172e-03
 Sym= A
 Ene=  2.32690914313970554e+00
 Spin= Beta
 Occup=  0.00000000000000000e+00
  1  1.87764613558227547e-05
  2 -8.34033501746367417e-06
  3  4.05362785221024535e-02
  4  4.12556759580637866e-02
  5  3.43611538995094445e-02
  6 -3.28647318940184104e-04
  7  4.05395567560894676e-01
  8  4.12287144969824770e-01
  9  3.43259727740230836e-01
 10  4.99255769818504114e-01
 11 -5.82562307455398165e-01
 12  8.33615634982679404e-02
 13 -5.58366784067080402e-01
 14  2.89124755496652341e-01
 15 -1.66469663137333934e+00
 16 -6.11749860267743362e-01
 17  1.78559719352709353e-02