
    -----------------------------------------------------------------------
          Psi4: An Open-Source Ab Initio Electronic Structure Package
                               Psi4 1.3.2 release

                         Git: Rev {HEAD} ecbda83 


    R. M. Parrish, L. A. Burns, D. G. A. Smith, A. C. Simmonett,
    A. E. DePrince III, E. G. Hohenstein, U. Bozkaya, A. Yu. Sokolov,
    R. Di Remigio, R. M. Richard, J. F. Gonthier, A. M. James,
    H. R. McAlexander, A. Kumar, M. Saitow, X. Wang, B. P. Pritchard,
    P. Verma, H. F. Schaefer III, K. Patkowski, R. A. King, E. F. Valeev,
    F. A. Evangelista, J. M. Turney, T. D. Crawford, and C. D. Sherrill,
    J. Chem. Theory Comput. 13(7) pp 3185--3197 (2017).
    (doi: 10.1021/acs.jctc.7b00174)


                         Additional Contributions by
    P. Kraus, H. Kruse, M. H. Lechner, M. C. Schieber, R. A. Shaw,
    A. Alenaizan, R. Galvelis, Z. L. Glick, S. Lehtola, and J. P. Misiewicz

    -----------------------------------------------------------------------


    Psi4 started on: Wednesday, 05 February 2020 01:43PM

    Process ID: 890
    Host:       rh05314.villa-bosch.de
    PSIDATADIR: /media/miniconda3/envs/p4env/share/psi4
    Memory:     500.0 MiB
    Threads:    1
    
  ==> Input File <==

--------------------------------------------------------------------------

# PYTHONPATH must include directory above plugin directory.
#     Define either externally or here, then import plugin.

molecule {
  O   0.27681793323501      0.00000014791107      0.00000000000000
  H   0.86159097690242      0.76505117501585      0.00000000000000
  H   0.86159108986257     -0.76505132292693      0.00000000000000
symmetry c1
}

set {
  basis def2-TZVP
}


set scf {
 reference uks
}

energy('HF')
--------------------------------------------------------------------------

*** tstart() called on rh05314.villa-bosch.de
*** at Wed Feb  5 13:43:35 2020

   => Loading Basis Set <=

    Name: DEF2-TZVP
    Role: ORBITAL
    Keyword: BASIS
    atoms 1   entry O          line   189 file /media/miniconda3/envs/p4env/share/psi4/basis/def2-tzvp.gbs 
    atoms 2-3 entry H          line    15 file /media/miniconda3/envs/p4env/share/psi4/basis/def2-tzvp.gbs 


         ---------------------------------------------------------
                                   SCF
               by Justin Turney, Rob Parrish, Andy Simmonett
                          and Daniel G. A. Smith
                              UKS Reference
                        1 Threads,    500 MiB Core
         ---------------------------------------------------------

  ==> Geometry <==

    Molecular point group: c1
    Full point group: Cs

    Geometry (in Angstrom), charge = 0, multiplicity = 1:

       Center              X                  Y                   Z               Mass       
    ------------   -----------------  -----------------  -----------------  -----------------
         O           -0.065444807405     0.000000024830     0.000000000000    15.994914619570
         H            0.519328236262     0.765051051935     0.000000000000     1.007825032230
         H            0.519328349222    -0.765051446008     0.000000000000     1.007825032230

  Running in c1 symmetry.

  Rotational constants: A =     27.53924  B =     14.28895  C =      9.40769 [cm^-1]
  Rotational constants: A = 825605.71875  B = 428371.93058  C = 282035.58160 [MHz]
  Nuclear repulsion =    9.138491573938202

  Charge       = 0
  Multiplicity = 1
  Electrons    = 10
  Nalpha       = 5
  Nbeta        = 5

  ==> Algorithm <==

  SCF Algorithm Type is DF.
  DIIS enabled.
  MOM disabled.
  Fractional occupation disabled.
  Guess Type is SAD.
  Energy threshold   = 1.00e-06
  Density threshold  = 1.00e-06
  Integral threshold = 0.00e+00

  ==> Primary Basis <==

  Basis Set: DEF2-TZVP
    Blend: DEF2-TZVP
    Number of shells: 19
    Number of basis function: 43
    Number of Cartesian functions: 48
    Spherical Harmonics?: true
    Max angular momentum: 3

   => Loading Basis Set <=

    Name: (DEF2-TZVP AUX)
    Role: JKFIT
    Keyword: DF_BASIS_SCF
    atoms 1   entry O          line   323 file /media/miniconda3/envs/p4env/share/psi4/basis/def2-tzvp-jkfit.gbs 
    atoms 2-3 entry H          line    23 file /media/miniconda3/envs/p4env/share/psi4/basis/def2-tzvp-jkfit.gbs 

  ==> Pre-Iterations <==

   -------------------------------------------------------
    Irrep   Nso     Nmo     Nalpha   Nbeta   Ndocc  Nsocc
   -------------------------------------------------------
     A         43      43       0       0       0       0
   -------------------------------------------------------
    Total      43      43       5       5       5       0
   -------------------------------------------------------

  ==> Integral Setup <==

  DFHelper Memory: AOs need 0.002 GiB; user supplied 0.366 GiB. Using in-core AOs.

  ==> MemDFJK: Density-Fitted J/K Matrices <==

    J tasked:                   Yes
    K tasked:                   Yes
    wK tasked:                   No
    OpenMP threads:               1
    Memory [MiB]:               375
    Algorithm:                 Core
    Schwarz Cutoff:           1E-12
    Mask sparsity (%):       0.0000
    Fitting Condition:        1E-10

   => Auxiliary Basis Set <=

  Basis Set: (DEF2-TZVP AUX)
    Blend: DEF2-TZVP-JKFIT
    Number of shells: 37
    Number of basis function: 113
    Number of Cartesian functions: 133
    Spherical Harmonics?: true
    Max angular momentum: 4

  Minimum eigenvalue in the overlap matrix is 8.5121914406E-03.
  Using Symmetric Orthogonalization.

  SCF Guess: Superposition of Atomic Densities via on-the-fly atomic UHF.

  ==> Iterations <==

                           Total Energy        Delta E     RMS |[F,P]|

   @DF-UKS iter SAD:   -75.49745711331289   -7.54975e+01   0.00000e+00 
   @DF-UKS iter   1:   -75.97837091116278   -4.80914e-01   1.05769e-02 DIIS
   @DF-UKS iter   2:   -76.03108919073492   -5.27183e-02   6.90539e-03 DIIS
   @DF-UKS iter   3:   -76.05823513722729   -2.71459e-02   5.16922e-04 DIIS
   @DF-UKS iter   4:   -76.05863486420805   -3.99727e-04   1.25475e-04 DIIS
   @DF-UKS iter   5:   -76.05865885108938   -2.39869e-05   2.44254e-05 DIIS
   @DF-UKS iter   6:   -76.05866027343734   -1.42235e-06   5.49284e-06 DIIS
   @DF-UKS iter   7:   -76.05866035441683   -8.09795e-08   8.07816e-07 DIIS
  Energy and wave function converged.


  ==> Post-Iterations <==

   @Spin Contamination Metric:  -6.217248938E-15
   @S^2 Expected:                0.000000000E+00
   @S^2 Observed:               -6.217248938E-15
   @S   Expected:                0.000000000E+00
   @S   Observed:                0.000000000E+00

    Orbital Energies [Eh]
    ---------------------

    Alpha Occupied:                                                       

       1A    -20.560424     2A     -1.346307     3A     -0.713006  
       4A     -0.578834     5A     -0.507354  

    Alpha Virtual:                                                        

       6A      0.127224     7A      0.196867     8A      0.523571  
       9A      0.564883    10A      0.597519    11A      0.638556  
      12A      0.768426    13A      0.772620    14A      1.416820  
      15A      1.438856    16A      1.553302    17A      1.775442  
      18A      1.896874    19A      2.024673    20A      2.278069  
      21A      2.346020    22A      2.395147    23A      2.572740  
      24A      2.697392    25A      2.970897    26A      2.978519  
      27A      3.026252    28A      3.145776    29A      4.008171  
      30A      4.330295    31A      5.552680    32A      5.653355  
      33A      5.836865    34A      5.861834    35A      5.926081  
      36A      6.524081    37A      6.728535    38A      6.829506  
      39A      6.893935    40A      6.939587    41A      7.406656  
      42A      7.496147    43A     44.832005  

    Beta Occupied:                                                        

       1A    -20.560424     2A     -1.346307     3A     -0.713006  
       4A     -0.578834     5A     -0.507354  

    Beta Virtual:                                                         

       6A      0.127224     7A      0.196867     8A      0.523571  
       9A      0.564883    10A      0.597519    11A      0.638556  
      12A      0.768426    13A      0.772620    14A      1.416820  
      15A      1.438856    16A      1.553302    17A      1.775442  
      18A      1.896874    19A      2.024673    20A      2.278069  
      21A      2.346020    22A      2.395147    23A      2.572740  
      24A      2.697392    25A      2.970897    26A      2.978519  
      27A      3.026252    28A      3.145776    29A      4.008171  
      30A      4.330295    31A      5.552680    32A      5.653355  
      33A      5.836865    34A      5.861834    35A      5.926081  
      36A      6.524081    37A      6.728535    38A      6.829506  
      39A      6.893935    40A      6.939587    41A      7.406656  
      42A      7.496147    43A     44.832005  

    Final Occupation by Irrep:
              A 
    DOCC [     5 ]
    SOCC [     0 ]

  @DF-UKS Final Energy:   -76.05866035441683

   => Energetics <=

    Nuclear Repulsion Energy =              9.1384915739382020
    One-Electron Energy =                -122.9824536670163013
    Two-Electron Energy =                  37.7853017386612677
    Total Energy =                        -76.0586603544168440

  UHF NO Occupations:
  HONO-2 :    3  A 2.0000000
  HONO-1 :    4  A 2.0000000
  HONO-0 :    5  A 2.0000000
  LUNO+0 :    6  A 0.0000000
  LUNO+1 :    7  A 0.0000000
  LUNO+2 :    8  A 0.0000000
  LUNO+3 :    9  A 0.0000000


Computation Completed


Properties will be evaluated at   0.000000,   0.000000,   0.000000 [a0]

Properties computed using the SCF density matrix

  Nuclear Dipole Moment: [e a0]
     X:     0.9734      Y:    -0.0000      Z:     0.0000

  Electronic Dipole Moment: [e a0]
     X:    -0.1270      Y:     0.0000      Z:    -0.0000

  Dipole Moment: [e a0]
     X:     0.8464      Y:    -0.0000      Z:    -0.0000     Total:     0.8464

  Dipole Moment: [D]
     X:     2.1512      Y:    -0.0000      Z:    -0.0000     Total:     2.1512


*** tstop() called on rh05314.villa-bosch.de at Wed Feb  5 13:43:35 2020
Module time:
	user time   =       0.38 seconds =       0.01 minutes
	system time =       0.01 seconds =       0.00 minutes
	total time  =          0 seconds =       0.00 minutes
Total time:
	user time   =       0.38 seconds =       0.01 minutes
	system time =       0.01 seconds =       0.00 minutes
	total time  =          0 seconds =       0.00 minutes

    Psi4 stopped on: Wednesday, 05 February 2020 01:43PM
    Psi4 wall time for execution: 0:00:00.40

*** Psi4 exiting successfully. Buy a developer a beer!
