[Molden Format]
[Atoms] (AU)
C    1    6         0.000000021757       0.000000020110       0.000000000117
O    2    8         0.000000021757       0.000000020110       2.192037283393
O    3    8        -0.000000038081      -0.000000035197      -2.192037283480
[GTO]
  1 0
 s    6  1.00
    13575.3496820000         0.0002224581
     2035.2333680000         0.0017232738
      463.2256235900         0.0089255715
      131.2001959800         0.0357279845
       42.8530158910         0.1107625993
       15.5841857660         0.2429562763
 s    2  1.00
        6.2067138508         0.4144026345
        2.5764896527         0.2374496866
 s    1  1.00
        0.5769633942         1.0000000000
 s    1  1.00
        0.2297283136         1.0000000000
 s    1  1.00
        0.0951644400         1.0000000000
 p    4  1.00
       34.6972322440         0.0053333658
        7.9582622826         0.0358641091
        2.3780826883         0.1421587333
        0.8143320818         0.3427047185
 p    1  1.00
        0.2888754725         1.0000000000
 p    1  1.00
        0.1005682367         1.0000000000
 d    1  1.00
        1.0970000000         1.0000000000
 d    1  1.00
        0.3180000000         1.0000000000
 f    1  1.00
        0.7610000000         1.0000000000

  2 0
 s    6  1.00
    27032.3826310000         0.0002172630
     4052.3871392000         0.0016838662
      922.3272271000         0.0087395616
      261.2407098900         0.0352399688
       85.3546413510         0.1115351912
       31.0350352450         0.2558895396
 s    2  1.00
       12.2608607280         0.3976873090
        4.9987076005         0.2462784943
 s    1  1.00
        1.1703108158         1.0000000000
 s    1  1.00
        0.4647474099         1.0000000000
 s    1  1.00
        0.1850453636         1.0000000000
 p    4  1.00
       63.2749548010         0.0060685103
       14.6270493790         0.0419125758
        4.4501223456         0.1615384109
        1.5275799647         0.3570695131
 p    1  1.00
        0.5293511794         1.0000000000
 p    1  1.00
        0.1747842127         1.0000000000
 d    1  1.00
        2.3140000000         1.0000000000
 d    1  1.00
        0.6450000000         1.0000000000
 f    1  1.00
        1.4280000000         1.0000000000

  3 0
 s    6  1.00
    27032.3826310000         0.0002172630
     4052.3871392000         0.0016838662
      922.3272271000         0.0087395616
      261.2407098900         0.0352399688
       85.3546413510         0.1115351912
       31.0350352450         0.2558895396
 s    2  1.00
       12.2608607280         0.3976873090
        4.9987076005         0.2462784943
 s    1  1.00
        1.1703108158         1.0000000000
 s    1  1.00
        0.4647474099         1.0000000000
 s    1  1.00
        0.1850453636         1.0000000000
 p    4  1.00
       63.2749548010         0.0060685103
       14.6270493790         0.0419125758
        4.4501223456         0.1615384109
        1.5275799647         0.3570695131
 p    1  1.00
        0.5293511794         1.0000000000
 p    1  1.00
        0.1747842127         1.0000000000
 d    1  1.00
        2.3140000000         1.0000000000
 d    1  1.00
        0.6450000000         1.0000000000
 f    1  1.00
        1.4280000000         1.0000000000

[5D]
[9G]

[MO]
 Sym= A
 Ene= -1.92140150624780617e+01
 Spin= Alpha
 Occup=  1.00000000000000000e+00
  1  4.22993948237567601e-08
  2 -2.71397582174464778e-07
  3 -4.21466499667236643e-06
  4  3.55828066539420060e-05
  5 -1.48607073738905249e-06
  6 -1.92861086789903376e-11
  7 -1.78249649896471784e-11
  8 -1.41149975634366205e-03
  9  5.85701024975839303e-12
 10  5.41299605943281934e-12
 11  4.42637880512297471e-04
 12  7.97525275403173625e-11
 13  7.37149000774673074e-11
 14  5.83898382343826620e-03
 15  1.22510652386189962e-06
 16  1.77415962166061731e-11
 17  1.63981929245607179e-11
 18  4.53840694978715515e-16
 19  7.37077383307972358e-16
 20  1.52859873295522459e-05
 21  1.36047101894754068e-10
 22  1.25745834714021831e-10
 23 -2.05883152097348511e-16
 24 -7.77331589453968784e-16
 25  1.86471093031271217e-03
 26  6.23824977781352346e-11
 27  5.76584938167854923e-11
 28 -8.76273030053580379e-17
 29  8.45802388569888458e-17
 30 -1.86381761874662453e-16
 31 -1.28648307775862799e-16
 32 -3.07382204693175121e-01
 33 -4.51774046073396440e-01
 34 -2.54155407969354312e-02
 35  1.62119148626858195e-02
 36 -1.14876247071759897e-02
 37  3.04181944772732747e-12
 38  2.81213171164546975e-12
 39  1.91288996906735639e-03
 40 -7.48226480755236935e-11
 41 -6.91576629012899640e-11
 42 -1.46194346089137633e-03
 43 -6.26440742462849518e-11
 44 -5.79005521992304544e-11
 45  1.20569377381855706e-03
 46 -4.50710662022356476e-04
 47 -5.53569609657380306e-12
 48 -5.11650325402376366e-12
 49 -6.34333914484960288e-16
 50  2.78329220985066755e-16
 51  6.04323280288281226e-04
 52  7.05191271751559464e-11
 53  6.51794904073739965e-11
 54 -1.19267699437251443e-15
 55  1.00222028507085972e-15
 56 -1.96897003849245875e-05
 57 -1.85324234330729098e-11
 58 -1.71296508243745589e-11
 59 -7.21935961558607307e-16
 60 -4.55022465987437665e-17
 61 -1.26812569593600037e-15
 62  1.97835634801816046e-15
 63  3.07917972276191720e-01
 64  4.52561334714836228e-01
 65  2.54638577297005217e-02
 66 -1.62712695223513962e-02
 67  1.14843372433719743e-02
 68  4.93310276644056310e-11
 69  4.55938048181051162e-11
 70  1.91680389166368377e-03
 71  3.41121393396013394e-11
 72  3.15312992513203664e-11
 73 -1.48102396776999819e-03
 74  9.53159103938980225e-11
 75  8.80961460614112422e-11
 76  1.20251972147655383e-03
 77  4.51036452190392209e-04
 78  1.58185730258487417e-11
 79  1.46207024914571003e-11
 80  6.35027973106800838e-16
 81 -6.39056478798637138e-16
 82 -6.07684070235039076e-04
 83  4.15786951913064253e-11
 84  3.84302502715616040e-11
 85  8.17066218017570331e-16
 86 -8.38019407206143658e-16
 87 -2.01269008160935056e-05
 88  1.71511441199898647e-11
 89  1.58525674023895740e-11
 90 -3.34661122113774730e-16
 91 -4.98980031617718421e-17
 92  1.78952615666257091e-15
 93 -1.16805391634486980e-15
 Sym= A
 Ene= -1.92140120444700102e+01
 Spin= Alpha
 Occup=  1.00000000000000000e+00
  1 -4.85802063546247117e-05
  2  3.11695923207600065e-04
  3  4.84047839506715569e-03
  4 -4.08663186678927051e-02
  5  1.70672733312125595e-03
  6  2.33725169419072136e-11
  7  2.16032005522217807e-11
  8 -1.22901351795415595e-06
  9  2.13377625564970184e-10
 10  1.97222064398672253e-10
 11  3.85404560991999587e-07
 12 -6.54433121775113516e-11
 13 -6.04894008754072508e-11
 14  5.08408294008333079e-06
 15 -1.40701612691892684e-03
 16 -3.32476619978480404e-11
 17 -3.07299882991697141e-11
 18  2.60976437619648213e-16
 19 -2.33730249433824330e-16
 20 -1.75557256929457714e-02
 21 -4.14913019699591192e-10
 22 -3.83494147713295867e-10
 23 -6.49074475075612709e-16
 24 -6.25083739392504537e-16
 25  1.62363048890297488e-06
 26 -4.45120303323507453e-11
 27 -4.11413277247561783e-11
 28 -3.10460095949279816e-16
 29  2.09332876692845229e-16
 30  6.11849511916616714e-16
 31 -7.04341283414289975e-16
 32 -3.07928031395742152e-01
 33 -4.52487779178039728e-01
 34 -2.77677705503261880e-02
 35  3.40981006009489357e-02
 36  1.87780510363900707e-03
 37 -2.68688301327751060e-11
 38 -2.48324687294275900e-11
 39  2.24920809423430476e-03
 40  1.60165700395048252e-10
 41  1.48034825073646932e-10
 42 -1.09581188557185891e-02
 43  8.96387091018830974e-11
 44  8.28526875686381360e-11
 45 -1.82162866675583549e-03
 46 -1.87475227198286568e-04
 47  1.62704401885380955e-11
 48  1.50385288428483155e-11
 49 -2.61337915638730226e-16
 50  1.08231108061370229e-16
 51  1.93043643009371021e-03
 52 -1.18889009627305710e-10
 53 -1.09885706278649629e-10
 54  2.80242409272684646e-16
 55  4.38881148737013165e-16
 56 -2.51076460212605742e-04
 57  2.03344699713623459e-11
 58  1.87947733215747216e-11
 59 -1.81533522177851586e-16
 60 -3.38329345035743620e-16
 61 -1.13283858364053839e-15
 62  1.77032845454728475e-15
 63 -3.07392281353681962e-01
 64 -4.51700362338677885e-01
 65 -2.77234691595420850e-02
 66  3.40698170365848346e-02
 67  1.89780710087836257e-03
 68 -8.81820336287021047e-11
 69 -8.15036096155377147e-11
 70 -2.24587352514340902e-03
 71  4.59359211494887679e-10
 72  4.24575674968416810e-10
 73  1.09555563706033813e-02
 74  1.39533469002557372e-10
 75  1.28968242422306051e-10
 76  1.82372552947462734e-03
 77 -1.86690063269727256e-04
 78 -2.51077044715541868e-11
 79 -2.32067722805231320e-11
 80 -2.19505852932979668e-16
 81  7.49196925835132269e-17
 82  1.92938111843383000e-03
 83  2.10235663410772567e-10
 84  1.94316325656947953e-10
 85  9.19761830442692614e-16
 86  1.16263081591636876e-16
 87  2.51041791363497543e-04
 88  3.71543648854053271e-11
 89  3.43399176699379774e-11
 90  1.69042282216788842e-16
 91  2.21345711132296402e-16
 92 -1.42182808351315025e-15
 93  1.54374012145076993e-15
 Sym= A
 Ene= -1.03656530983882895e+01
 Spin= Alpha
 Occup=  1.00000000000000000e+00
  1 -4.66797708261642796e-01
  2 -6.07579657361356995e-01
  3 -4.39291851394255292e-02
  4  1.42170233768199091e-02
  5 -2.93559621491164442e-03
  6  8.02252897234178793e-11
  7  7.41512340871294013e-11
  8  9.47053551406180019e-12
  9  2.04030276030219463e-10
 10  1.88582635111847575e-10
 11  9.93172463126636757e-12
 12 -8.96519416714168789e-11
 13 -8.28636331416021367e-11
 14  1.22436091099849388e-12
 15 -6.16313063438599876e-03
 16 -1.45701753209343149e-10
 17 -1.34668650971162508e-10
 18 -4.38573371487991525e-16
 19 -2.84133271432332031e-16
 20 -2.17289170103822284e-03
 21 -5.13685642107776054e-11
 22 -4.74802342963794918e-11
 23  2.61843023901224910e-16
 24 -1.10241104005056508e-16
 25  2.51020151209537137e-12
 26  1.11709176144508748e-10
 27  1.03251847938147272e-10
 28  2.54673779310690249e-16
 29 -3.37757268002502672e-17
 30  5.19988435280694637e-16
 31 -6.58242746136970552e-16
 32  1.15333607630870968e-04
 33  3.97627843674869177e-04
 34 -3.88514959078697323e-03
 35  1.03406517312583865e-02
 36 -2.15359267526607371e-03
 37  1.01961926821334561e-12
 38  9.42564124933075649e-13
 39  9.63339711949150581e-04
 40 -4.86571493361275936e-11
 41 -4.49733942767209070e-11
 42 -8.09006126001540933e-03
 43  2.23407315604028023e-11
 44  2.06489712168424136e-11
 45  1.84643930661795093e-03
 46 -6.40353145617165922e-05
 47  3.35693361118678856e-12
 48  3.10273892286983781e-12
 49  3.50348792539652866e-16
 50  3.00456734543901481e-16
 51  4.31461757703156812e-03
 52  3.08162721555602612e-11
 53  2.84834061223019718e-11
 54 -4.64703952607893409e-16
 55 -3.11550352573855909e-16
 56 -1.19985227816856409e-03
 57 -2.76968665106376252e-12
 58 -2.56025035243857966e-12
 59 -1.43102568765414272e-16
 60 -2.06075296370489675e-16
 61  4.41905764554422458e-16
 62  2.33854354285888299e-16
 63  1.15333607500446434e-04
 64  3.97627843697532580e-04
 65 -3.88514959437493432e-03
 66  1.03406517426794173e-02
 67 -2.15359266431006894e-03
 68 -2.52780574608113059e-11
 69 -2.33638560468068198e-11
 70 -9.63339713132390393e-04
 71  1.72185963159666180e-10
 72  1.59146447326196411e-10
 73  8.09006127032097129e-03
 74 -2.80635539879025589e-11
 75 -2.59396371119457679e-11
 76 -1.84643930271830188e-03
 77 -6.40353149433207236e-05
 78 -6.38502559676394928e-12
 79 -5.90111905552542276e-12
 80 -2.68311289910291655e-16
 81  1.19602850584827841e-16
 82  4.31461758253604173e-03
 83  1.73185545866245722e-10
 84  1.60070126101760487e-10
 85  2.09618902614887476e-16
 86  1.10226121078766328e-16
 87  1.19985228025979926e-03
 88  7.74601599596303794e-11
 89  7.15943395555939004e-11
 90  3.92787428429390005e-16
 91  3.72542869183348128e-16
 92  1.50438087532357432e-16
 93 -2.23877062712663033e-16
 Sym= A
 Ene= -1.17071558737708137e+00
 Spin= Alpha
 Occup=  1.00000000000000000e+00
  1 -7.60198032613168817e-02
  2 -1.59379034552737053e-01
  3  2.70706996422637958e-01
  4  1.15434693601706856e-01
  5  5.23200355652315985e-03
  6 -2.90768950954305179e-09
  7 -2.68751049377168869e-09
  8 -6.36535538630381991e-09
  9 -1.11249057241040845e-09
 10 -1.02825364172037471e-09
 11 -3.26685116724392000e-09
 12  1.63083644103214257e-10
 13  1.50735880868144704e-10
 14 -5.62307377162561850e-11
 15  3.38782492599403670e-02
 16  8.00907337231595977e-10
 17  7.40262007764450763e-10
 18 -4.17163896920181818e-15
 19  4.68856841294558776e-16
 20  3.17019690963741586e-03
 21  7.49435334190545765e-11
 22  6.92730574311562596e-11
 23  1.10341050331161424e-15
 24  3.55937827402862176e-17
 25 -4.74856707065313194e-10
 26 -6.51656032602266157e-10
 27 -6.02313029813502945e-10
 28 -1.38491995850839127e-15
 29  3.83464029419805709e-16
 30 -4.40747514857138046e-15
 31  4.63540406887201292e-15
 32 -6.20057250737706331e-02
 33 -1.45538829003810655e-01
 34  2.14855200869393609e-01
 35  2.64519356264824146e-01
 36  8.19307884782470991e-02
 37 -2.21065328700648277e-10
 38 -2.04323240309286509e-10
 39 -9.64401311357201002e-02
 40  1.94148133358063040e-10
 41  1.79449889008408878e-10
 42 -6.83876964819551542e-02
 43 -5.69759774967239652e-11
 44 -5.26642259108441590e-11
 45 -1.04328933457389500e-02
 46  5.73762841604823649e-03
 47  6.21425397125994201e-12
 48  5.74327343341074135e-12
 49  1.09000436581587837e-15
 50  3.29629122790856816e-16
 51  9.24487112562166063e-03
 52 -2.47982852914205052e-10
 53 -2.29205591943278149e-10
 54 -3.11498367443065356e-15
 55 -7.66187693070917918e-16
 56 -1.52093070318575310e-03
 57  5.49495474376995824e-11
 58  5.07888289625285268e-11
 59  2.17391572323374715e-15
 60  1.70317597992430607e-16
 61 -8.05127439650816930e-16
 62  8.46404957295559303e-16
 63 -6.20057286033101826e-02
 64 -1.45538837294522078e-01
 65  2.14855213364753800e-01
 66  2.64519370166640899e-01
 67  8.19307920723412741e-02
 68  2.41156127764017511e-09
 69  2.22895780241849893e-09
 70  9.64401362309830618e-02
 71  2.06099496962061107e-09
 72  1.90493808602100918e-09
 73  6.83876992972096698e-02
 74  2.27820134400803653e-10
 75  2.10571350750720425e-10
 76  1.04328933773500838e-02
 77  5.73762872297799761e-03
 78  2.65070246597988868e-10
 79  2.44998714690779255e-10
 80  3.03526535055038211e-15
 81 -4.50964547182033150e-16
 82  9.24487149908501983e-03
 83  6.85092991239022198e-10
 84  6.33219685429528168e-10
 85  2.39135689380046958e-15
 86  1.10629230247193436e-15
 87  1.52093082476751707e-03
 88  1.56649145383169021e-10
 89  1.44787768944325390e-10
 90  3.07807091750852224e-16
 91  1.62647508997131726e-16
 92 -1.11696457095031694e-15
 93  8.58562228512288683e-16
 Sym= A
 Ene= -1.13110025746399101e+00
 Spin= Alpha
 Occup=  1.00000000000000000e+00
  1  2.02984319466339204e-09
  2  4.26102768122768836e-09
  3 -7.25395804360323431e-09
  4 -3.31478076430380509e-09
  5 -1.88186619010368701e-10
  6 -3.48758532029252476e-09
  7 -3.22350003022866934e-09
  8 -2.55519302471618970e-01
  9 -1.81803808729016586e-09
 10 -1.68037664974582116e-09
 11 -1.33199373817936673e-01
 12 -4.92204007278463965e-11
 13 -4.54920379782002202e-11
 14 -3.60611243176045841e-03
 15 -8.61247477391801447e-10
 16  7.55375590953982677e-10
 17  6.98176663915614187e-10
 18  1.76371943887877039e-15
 19  1.33663584949321265e-16
 20 -7.78083799050536463e-11
 21  2.59156782335513481e-10
 22  2.39534065499271134e-10
 23  7.89137506205463571e-16
 24 -4.44561948399847929e-16
 25 -1.88421161981470429e-02
 26 -6.29949053210263750e-10
 27 -5.82250161229819378e-10
 28  1.90847993341617301e-15
 29  1.94270279927815109e-16
 30  5.29109570100621451e-17
 31 -1.96961797636310305e-16
 32  6.76570717072825373e-02
 33  1.58843391171543585e-01
 34 -2.35948179694880716e-01
 35 -2.65292565152292881e-01
 36 -6.99959051522592718e-02
 37 -3.24142833717401343e-10
 38 -2.99601198480653624e-10
 39  9.93324711457713727e-02
 40  5.60029937270867464e-11
 41  5.17626928375638366e-11
 42  5.45514547068320435e-02
 43 -8.14585361041871436e-12
 44 -7.53158660944336880e-12
 45  5.48750785407012731e-04
 46 -6.08377322937924455e-03
 47  3.51074636357654398e-11
 48  3.24495179917324216e-11
 49 -1.23460809136508840e-15
 50 -6.94851608735822046e-17
 51 -7.01589753426006945e-03
 52 -1.51074256349855319e-10
 53 -1.39635330389837273e-10
 54  2.67784223184160262e-15
 55  9.88682868383564841e-16
 56  2.32556399015821074e-03
 57  3.66497141768482233e-11
 58  3.38751234292005543e-11
 59 -2.45936055173175172e-15
 60 -1.03980759490110832e-16
 61  1.41383803807196939e-15
 62 -8.56888322321021081e-16
 63 -6.76570686134279758e-02
 64 -1.58843383916158848e-01
 65  2.35948169213333697e-01
 66  2.65292551989871561e-01
 67  6.99959009696838608e-02
 68  3.03572564234661197e-09
 69  2.80585942571235956e-09
 70  9.93324661124980746e-02
 71  1.43314044631444675e-09
 72  1.32462534494614997e-09
 73  5.45514511004190072e-02
 74  2.31280288236204086e-11
 75  2.13765175644802903e-11
 76  5.48750221218022934e-04
 77  6.08377292591471674e-03
 78  3.22758073434177847e-10
 79  2.98318407122557227e-10
 80  3.44122069731138790e-15
 81 -6.32418733288863135e-16
 82  7.01589704498203123e-03
 83  1.80646324260277203e-10
 84  1.66969216923855491e-10
 85  2.98571237287736199e-15
 86  1.16153840773216968e-15
 87  2.32556390973716201e-03
 88  1.18852419756525497e-10
 89  1.09852879488014178e-10
 90  4.07854860123739549e-17
 91  2.08422723574461261e-16
 92 -1.09570054704816960e-15
 93  1.18750480959486115e-15
 Sym= A
 Ene= -5.71973937392867171e-01
 Spin= Alpha
 Occup=  1.00000000000000000e+00
  1 -6.66514574414268784e-02
  2 -1.44887098775368983e-01
  3  2.64825365493651321e-01
  4  2.60241982003520889e-01
  5  5.90919314295029058e-03
  6 -8.61176114423076580e-11
  7 -7.95881986708673359e-11
  8 -7.51673091835261389e-09
  9  3.16048618224647546e-10
 10  2.92121888960835447e-10
 11 -5.06825033255960553e-09
 12  9.53851420685156893e-10
 13  8.81625804111044931e-10
 14  7.92706034230614355e-10
 15  1.56466705371710799e-02
 16  3.69898456821166361e-10
 17  3.41889529527464359e-10
 18 -5.46615904535974408e-15
 19  8.69863234756884219e-16
 20 -4.02975130484938774e-03
 21 -9.52651593130119177e-11
 22 -8.80542090739972404e-11
 23 -9.29001486703008934e-16
 24  1.15274254122056628e-16
 25 -4.71372942984097449e-10
 26 -3.69773524614972491e-10
 27 -3.41773166522937617e-10
 28 -1.49569917348694741e-15
 29  2.49904978020411990e-17
 30 -4.92627426499500838e-15
 31  5.13396564272311400e-15
 32  4.29046860963634424e-02
 33  1.02019845417730862e-01
 34 -1.53550666051002815e-01
 35 -2.38099991004254274e-01
 36 -1.84565585665826926e-01
 37  2.94384475864280749e-10
 38  2.72095562718523750e-10
 39 -2.48893808627967700e-01
 40  5.26629227219546576e-10
 41  4.86754603078567011e-10
 42 -1.73829242215867624e-01
 43 -1.35048855604422017e-10
 44 -1.24817926195526129e-10
 45 -8.42939294450488763e-02
 46  7.16961977730285957e-03
 47 -2.13980642995621588e-11
 48 -1.97770238450938701e-11
 49 -8.75578877346233285e-16
 50 -1.61599288833533469e-17
 51  1.00966437709502522e-02
 52 -1.69945943708879060e-10
 53 -1.57079950949597991e-10
 54 -9.15597792593808904e-16
 55  1.13564602434936838e-15
 56 -1.45702717111968229e-03
 57  5.97991339380095797e-11
 58  5.52708563268736571e-11
 59 -1.83802313619648867e-15
 60  3.66794028897994403e-16
 61  4.74272452187969684e-15
 62 -5.53227926274605101e-15
 63  4.29046878735460727e-02
 64  1.02019849648369673e-01
 65 -1.53550672378767489e-01
 66 -2.38100002960389939e-01
 67 -1.84565594149309564e-01
 68  7.08869787159144831e-09
 69  6.55193234071781226e-09
 70  2.48893825703047689e-01
 71  5.27182801402426967e-09
 72  4.87263764117578065e-09
 73  1.73829253621460456e-01
 74  2.16601427851626679e-09
 75  2.00199748278589825e-09
 76  8.42939344980638411e-02
 77  7.16962026816531962e-03
 78  3.60389004453975593e-10
 79  3.33100596550671582e-10
 80 -1.98103131781548946e-15
 81  1.02912762190249511e-15
 82  1.00966443858818613e-02
 83  6.47333535536073635e-10
 84  5.98314760732605106e-10
 85 -3.18829045974795766e-15
 86 -6.94204268883588013e-16
 87  1.45702732578908457e-03
 88  1.57223177834900657e-10
 89  1.45319304242427490e-10
 90  3.72090844290217059e-15
 91 -2.17573829310997574e-16
 92  4.89345041595975795e-15
 93 -5.79819015375608431e-15
 Sym= A
 Ene= -5.30072011922400832e-01
 Spin= Alpha
 Occup=  1.00000000000000000e+00
  1  1.91333088246572019e-09
  2  4.16342741508163210e-09
  3 -7.66849934438231282e-09
  4 -7.55852281908990096e-09
  5 -1.61157403620787620e-10
  6 -3.63483179638144930e-09
  7 -3.35941741148408879e-09
  8 -2.66301715360510061e-01
  9 -2.39975353409848009e-09
 10 -2.21790293928068687e-09
 11 -1.75814803720218543e-01
 12  5.35624581220156016e-10
 13  4.95103438514049643e-10
 14  3.92440069548192702e-02
 15 -3.69975586650738926e-10
 16  3.28371623083218595e-10
 17  3.03506777188890791e-10
 18  1.54425414774061543e-15
 19 -5.72517448382721990e-17
 20  2.72136474469883951e-10
 21 -2.65284792013956464e-10
 22 -2.45196314027740712e-10
 23  6.05801438395260384e-18
 24  2.21054130355168459e-16
 25 -1.61388333447403109e-02
 26 -5.39572564695132638e-10
 27 -4.98706021972136596e-10
 28  3.58708339413454078e-15
 29 -4.36281982884461962e-16
 30  2.86792972011507589e-17
 31 -1.02966099902096482e-16
 32 -3.24356979564273742e-02
 33 -7.71302123366389841e-02
 34  1.12389440883631217e-01
 35  2.16348130615308665e-01
 36  1.52195408247445402e-01
 37 -2.06914588873643377e-09
 38 -1.91230260224921752e-09
 39  2.96441481757597713e-01
 40 -1.30979520275893674e-09
 41 -1.21048431449869094e-09
 42  1.99909076901267219e-01
 43 -1.01823363264308106e-09
 44 -9.41073564823604145e-10
 45  9.62401879419930023e-02
 46 -8.66034867536148202e-03
 47  7.43722468620686884e-11
 48  6.87346972456442159e-11
 49  6.17372494530268688e-16
 50  1.90176164854946516e-16
 51 -1.11495063607001590e-02
 52 -2.94003411345385029e-11
 53 -2.71845898342607548e-11
 54  1.78081070402585668e-15
 55 -1.74786383795123669e-16
 56  2.75794869449831007e-03
 57 -1.25984999815836594e-11
 58 -1.16424082126357401e-11
 59  1.63897915405545228e-15
 60 -5.11550144018827204e-16
 61 -4.82674574260131199e-15
 62  6.20106891650214559e-15
 63  3.24356955050287971e-02
 64  7.71302065050051000e-02
 65 -1.12389432160298480e-01
 66 -2.16348117163695980e-01
 67 -1.52195397403649485e-01
 68  1.01612726414274170e-08
 69  9.39200458325312678e-09
 70  2.96441468427069699e-01
 71  6.76680221362166055e-09
 72  6.25453616296969219e-09
 73  1.99909067457350931e-01
 74  3.64535100850353575e-09
 75  3.36937604280274635e-09
 76  9.62401829046222040e-02
 77  8.66034827511838988e-03
 78  4.83843143126813837e-10
 79  4.47211576170802487e-10
 80 -1.42891119166347312e-15
 81  7.19319298086080314e-16
 82  1.11495057534905916e-02
 83  4.97753507859451980e-10
 84  4.60073609160097554e-10
 85 -3.21967195783619926e-15
 86 -1.79686925540134490e-15
 87  2.75794860801862425e-03
 88  1.97008074444849655e-10
 89  1.82093491887978976e-10
 90  4.63923289957083730e-15
 91 -3.46196535741331511e-16
 92  4.98445389695722470e-15
 93 -5.66380040546690644e-15
 Sym= A
 Ene= -5.26919088976514516e-01
 Spin= Alpha
 Occup=  1.00000000000000000e+00
  1 -5.40583198328692010e-10
  2 -1.15553138991079770e-09
  3  2.29817412744168311e-09
  4  8.32054519747425166e-10
  5  1.60794744918940273e-09
  6 -1.48291968254128550e-03
  7  2.98867572916164503e-01
  8 -3.75002271921849543e-09
  9 -1.14265300185261895e-03
 10  2.30290239830235915e-01
 11 -2.88954456882265297e-09
 12 -2.86319331982589471e-04
 13  5.77047866025653736e-02
 14 -7.24069652828552226e-10
 15  3.50443563148234335e-10
 16  1.20967127625765296e-12
 17 -2.43830076521668218e-10
 18  3.35022539944738690e-10
 19 -3.58871586318156406e-10
 20 -3.38591707042792535e-11
 21  1.80781733757736173e-12
 22 -3.64881714662494360e-10
 23  3.54684251228792588e-10
 24 -3.79930333356312190e-10
 25 -5.84445823696187161e-10
 26 -9.43509448893169796e-05
 27  1.90154856201352196e-02
 28 -3.81334767626306711e-10
 29  4.08490565634331711e-10
 30  9.78684399805441880e-10
 31  5.97769551490553031e-09
 32 -1.21991395872209347e-10
 33 -2.99772066660883840e-10
 34  4.73965653701774303e-10
 35  1.29667295391562687e-09
 36  1.69733381173037952e-09
 37 -1.28643661631538324e-03
 38  2.59268383685636983e-01
 39  1.67163812789933800e-09
 40 -1.00836761536945724e-03
 41  2.03226368468727686e-01
 42  7.17899224382656222e-10
 43 -4.88795764593268674e-04
 44  9.85118786517973632e-02
 45  2.27402586951033504e-10
 46 -4.16607106530869828e-11
 47  4.11998840833612299e-05
 48 -8.30342297374918326e-03
 49 -8.39735775840394135e-12
 50  8.99710961054279979e-12
 51  3.55961631235922594e-13
 52  8.66511249658156844e-05
 53 -1.74636642267368587e-02
 54  3.97674394183372925e-11
 55 -4.26174782792515239e-11
 56  2.83076746471057441e-11
 57 -1.66104430937073705e-05
 58  3.34766803044375628e-03
 59 -2.54597745925670529e-11
 60  2.72813714272910974e-11
 61 -2.95826361544036715e-11
 62 -1.80691526822164034e-10
 63 -1.22015065438256519e-10
 64 -2.99830815223665604e-10
 65  4.74061193902975456e-10
 66  1.29681092615028199e-09
 67  1.69750472702818817e-09
 68 -1.28643664065233453e-03
 69  2.59268388591077259e-01
 70 -8.17833405071582915e-09
 71 -1.00836763447996556e-03
 72  2.03226372320987836e-01
 73 -5.81811714896064641e-09
 74 -4.88795774723496277e-04
 75  9.85118806934791730e-02
 76 -2.69966541035360820e-09
 77 -4.02590773333035222e-10
 78 -4.11998844984023867e-05
 79  8.30342305751023690e-03
 80 -2.19026302046868431e-10
 81  2.34624194296459506e-10
 82 -7.58736213276666285e-10
 83 -8.66511261793788157e-05
 84  1.74636644708527841e-02
 85 -4.03221969901371447e-10
 86  4.31919660905617165e-10
 87 -2.34094287357378643e-10
 88 -1.66104433488835540e-05
 89  3.34766808181710760e-03
 90 -1.08807188581612831e-10
 91  1.16547670993235789e-10
 92 -2.95836756077532205e-11
 93 -1.80687922781198186e-10
 Sym= A
 Ene= -5.26919088976254946e-01
 Spin= Alpha
 Occup=  1.00000000000000000e+00
  1 -5.90725185443488793e-10
  2 -1.26271278037736978e-09
  3  2.51134666318051321e-09
  4  9.09180386667534610e-10
  5  1.75705974988428969e-09
  6  2.98867572916259261e-01
  7  1.48291968254584999e-03
  8 -4.09802573699806210e-09
  9  2.30290239835359151e-01
 10  1.14265300182974641e-03
 11 -3.15768146813877324e-09
 12  5.77047866016537903e-02
 13  2.86319331986701145e-04
 14 -7.91196885485993733e-10
 15  3.82951235127035686e-10
 16 -2.43728124611615094e-10
 17 -1.20924850140193812e-12
 18 -3.58881818644965346e-10
 19 -3.35010949153069992e-10
 20 -3.70245936989343692e-11
 21 -3.64391247933391867e-10
 22 -1.80855685810378660e-12
 23 -3.79941364250818191e-10
 24 -3.54675256353131221e-10
 25 -6.38666450208023137e-10
 26  1.90154856215994719e-02
 27  9.43509448819658314e-05
 28  4.08490660613676762e-10
 29  3.81334992508896973e-10
 30 -5.97771028791688819e-09
 31  9.78684718301161181e-10
 32 -1.33328164633377591e-10
 33 -3.27629408802504630e-10
 34  5.18006438754111537e-10
 35  1.41709420508428736e-09
 36  1.85490333409484928e-09
 37  2.59268383685677062e-01
 38  1.28643661631632454e-03
 39  1.82687698618988330e-09
 40  2.03226368467388646e-01
 41  1.00836761537171520e-03
 42  7.84607221515628835e-10
 43  9.85118786508723532e-02
 44  4.88795764597673896e-04
 45  2.48545133911307297e-10
 46 -4.55311581024034021e-11
 47 -8.30342297387782688e-03
 48 -4.11998840828722751e-05
 49  8.99545092228091650e-12
 50  8.39755746825446910e-12
 51  3.84718402169649244e-13
 52 -1.74636642253045773e-02
 53 -8.66511249728787601e-05
 54 -4.26044542350284941e-11
 55 -3.97845676547597611e-11
 56  3.09352058327674968e-11
 57  3.34766803009001928e-03
 58  1.66104430951989007e-05
 59  2.72745512981903521e-11
 60  2.54687706180637100e-11
 61  1.80692253066934576e-10
 62 -2.95834125315296548e-11
 63 -1.33311224492933534e-10
 64 -3.27588698780567293e-10
 65  5.17951164994628780e-10
 66  1.41696725276561538e-09
 67  1.85488226718965189e-09
 68  2.59268388590097210e-01
 69  1.28643664065314768e-03
 70 -8.93669893093804634e-09
 71  2.03226372319528475e-01
 72  1.00836763448975157e-03
 73 -6.35761845174809375e-09
 74  9.85118806919669521e-02
 75  4.88795774726788783e-04
 76 -2.94999147739651317e-09
 77 -4.39926075601047155e-10
 78  8.30342305754895073e-03
 79  4.11998844986880198e-05
 80  2.34623019407523897e-10
 81  2.19027501517176574e-10
 82 -8.29102080536098053e-10
 83  1.74636644698555506e-02
 84  8.66511261843852141e-05
 85  4.31932598679514800e-10
 86  4.03203778982475873e-10
 87 -2.55805968782682088e-10
 88  3.34766808150864081e-03
 89  1.66104433500962917e-05
 90  1.16555006934513483e-10
 91  1.08798611452487578e-10
 92  1.80695555615085254e-10
 93 -2.95835940609524480e-11
 Sym= A
 Ene= -3.82849072064316898e-01
 Spin= Alpha
 Occup=  1.00000000000000000e+00
  1  2.79979149805649863e-17
  2  4.43011725704488839e-16
  3  1.89371546926265081e-14
  4 -1.37399617142191395e-13
  5 -1.15740468125389443e-14
  6  4.10513596139743823e-12
  7 -2.76694468967265813e-09
  8  7.65832860663858405e-10
  9  3.43628873812589317e-12
 10 -2.31503296989202379e-09
 11 -1.65755672746334345e-09
 12  1.40497489845639517e-12
 13 -9.48358287096487538e-10
 14 -2.87247786626842842e-09
 15  8.00101560660462959e-10
 16  5.44412546303551609e-05
 17 -3.66759152216364070e-02
 18  4.63427777546921196e-10
 19 -4.99903112697484160e-10
 20  1.16817188362619252e-09
 21  7.94880812447121385e-05
 22 -5.35494295369521936e-02
 23  6.76637205046044606e-10
 24 -7.29893750198567503e-10
 25 -3.62977651272651956e-10
 26  1.75074924657052348e-13
 27 -1.17993040216663154e-10
 28 -2.07776519631711855e-10
 29  2.24116077159714774e-10
 30  1.47813894296378030e-17
 31  5.30827644755643846e-16
 32 -2.88588050491692629e-11
 33 -8.76764865468156040e-11
 34  3.51063608463166694e-10
 35 -3.48224538561653138e-10
 36  2.48229792412817786e-09
 37  5.18899376799599626e-04
 38 -3.49571472615957946e-01
 39 -2.82690365173521374e-09
 40  4.21580125522619438e-04
 41 -2.84009563112645358e-01
 42 -2.39920801573842246e-09
 43  2.83975002266137044e-04
 44 -1.91307918581836850e-01
 45 -1.56583484961229678e-09
 46  8.51164948800697053e-11
 47 -8.89546016778973438e-06
 48  5.99268229920601157e-03
 49  1.65447140738294102e-11
 50 -1.78488976804020091e-11
 51  1.47169961391185335e-10
 52 -2.74104586572028244e-05
 53  1.84658429488722686e-02
 54  4.90835799141453203e-11