
    -----------------------------------------------------------------------
          Psi4: An Open-Source Ab Initio Electronic Structure Package
                               Psi4 1.3.2 release

                         Git: Rev {HEAD} ecbda83 


    R. M. Parrish, L. A. Burns, D. G. A. Smith, A. C. Simmonett,
    A. E. DePrince III, E. G. Hohenstein, U. Bozkaya, A. Yu. Sokolov,
    R. Di Remigio, R. M. Richard, J. F. Gonthier, A. M. James,
    H. R. McAlexander, A. Kumar, M. Saitow, X. Wang, B. P. Pritchard,
    P. Verma, H. F. Schaefer III, K. Patkowski, R. A. King, E. F. Valeev,
    F. A. Evangelista, J. M. Turney, T. D. Crawford, and C. D. Sherrill,
    J. Chem. Theory Comput. 13(7) pp 3185--3197 (2017).
    (doi: 10.1021/acs.jctc.7b00174)


                         Additional Contributions by
    P. Kraus, H. Kruse, M. H. Lechner, M. C. Schieber, R. A. Shaw,
    A. Alenaizan, R. Galvelis, Z. L. Glick, S. Lehtola, and J. P. Misiewicz

    -----------------------------------------------------------------------


    Psi4 started on: Wednesday, 05 February 2020 02:14PM

    Process ID: 4165
    Host:       rh05314.villa-bosch.de
    PSIDATADIR: /media/miniconda3/envs/p4env/share/psi4
    Memory:     500.0 MiB
    Threads:    1
    
  ==> Input File <==

--------------------------------------------------------------------------

# PYTHONPATH must include directory above plugin directory.
#     Define either externally or here, then import plugin.
import psixas

molecule {
  N   -1.22651784160217      0.40019879988830      0.01704879881164
  H   -0.43885155782371      0.15100232225883      0.60864221052405
  H   -0.88355924463589      1.09440986479077     -0.64102616291803
  H   -1.44986135593823     -0.42747098693791     -0.52829484641767
symmetry c1
}

set {
  basis def2-tzvp
}


set scf {
 reference uks
 scf_type DF
}

energy('M11')
--------------------------------------------------------------------------

*** tstart() called on rh05314.villa-bosch.de
*** at Wed Feb  5 14:14:32 2020

   => Loading Basis Set <=

    Name: DEF2-TZVP
    Role: ORBITAL
    Keyword: BASIS
    atoms 1   entry N          line   156 file /media/miniconda3/envs/p4env/share/psi4/basis/def2-tzvp.gbs 
    atoms 2-4 entry H          line    15 file /media/miniconda3/envs/p4env/share/psi4/basis/def2-tzvp.gbs 


         ---------------------------------------------------------
                                   SCF
               by Justin Turney, Rob Parrish, Andy Simmonett
                          and Daniel G. A. Smith
                              UKS Reference
                        1 Threads,    500 MiB Core
         ---------------------------------------------------------

  ==> Geometry <==

    Molecular point group: c1
    Full point group: C1

    Geometry (in Angstrom), charge = 0, multiplicity = 1:

       Center              X                  Y                   Z               Mass       
    ------------   -----------------  -----------------  -----------------  -----------------
         N           -0.053703241151     0.022649891445     0.036214781014    14.003074004430
         H            0.733963042628    -0.226546586185     0.627808192726     1.007825032230
         H            0.289255355816     0.716860956347    -0.621860180716     1.007825032230
         H           -0.277046755487    -0.805019895381    -0.509128864215     1.007825032230

  Running in c1 symmetry.

  Rotational constants: A =      9.87927  B =      9.87883  C =      6.31326 [cm^-1]
  Rotational constants: A = 296172.97164  B = 296159.82690  C = 189266.91797 [MHz]
  Nuclear repulsion =   11.911859002588059

  Charge       = 0
  Multiplicity = 1
  Electrons    = 10
  Nalpha       = 5
  Nbeta        = 5

  ==> Algorithm <==

  SCF Algorithm Type is DF.
  DIIS enabled.
  MOM disabled.
  Fractional occupation disabled.
  Guess Type is SAD.
  Energy threshold   = 1.00e-06
  Density threshold  = 1.00e-06
  Integral threshold = 0.00e+00

  ==> Primary Basis <==

  Basis Set: DEF2-TZVP
    Blend: DEF2-TZVP
    Number of shells: 23
    Number of basis function: 49
    Number of Cartesian functions: 54
    Spherical Harmonics?: true
    Max angular momentum: 3

  ==> DFT Potential <==

   => Composite Functional: M11 <= 

    M11 Meta-GGA XC Functional

    R. Peverati and D. G. Truhlar, J. Phys. Chem. Lett., 2, 2810, 2011


    Deriv               =              1
    GGA                 =           TRUE
    Meta                =           TRUE

    Exchange Hybrid     =           TRUE
    MP2 Hybrid          =          FALSE

   => Exchange Functionals <=

    1.0000   XC_HYB_MGGA_X_M11 [omega = 0.2500]

   => Exact (HF) Exchange <=

    0.5720            HF,LR [omega = 0.2500]
    0.4280               HF 

   => Correlation Functionals <=

    1.0000    XC_MGGA_C_M11

   => Molecular Quadrature <=

    Radial Scheme          =       TREUTLER
    Pruning Scheme         =           FLAT
    Nuclear Scheme         =       TREUTLER

    BS radius alpha        =              1
    Pruning alpha          =              1
    Radial Points          =             75
    Spherical Points       =            302
    Total Points           =          89314
    Total Blocks           =            721
    Max Points             =            255
    Max Functions          =             49

   => Loading Basis Set <=

    Name: (DEF2-TZVP AUX)
    Role: JKFIT
    Keyword: DF_BASIS_SCF
    atoms 1   entry N          line   263 file /media/miniconda3/envs/p4env/share/psi4/basis/def2-tzvp-jkfit.gbs 
    atoms 2-4 entry H          line    23 file /media/miniconda3/envs/p4env/share/psi4/basis/def2-tzvp-jkfit.gbs 

  ==> Pre-Iterations <==

   -------------------------------------------------------
    Irrep   Nso     Nmo     Nalpha   Nbeta   Ndocc  Nsocc
   -------------------------------------------------------
     A         49      49       0       0       0       0
   -------------------------------------------------------
    Total      49      49       5       5       5       0
   -------------------------------------------------------

  ==> Integral Setup <==

  ==> DiskDFJK: Density-Fitted J/K Matrices <==

    J tasked:                  Yes
    K tasked:                  Yes
    wK tasked:                 Yes
    Omega:               2.500E-01
    OpenMP threads:              1
    Integrals threads:           1
    Memory [MiB]:               73
    Algorithm:                Core
    Integral Cache:           NONE
    Schwarz Cutoff:          1E-12
    Fitting Condition:       1E-10

   => Auxiliary Basis Set <=

  Basis Set: (DEF2-TZVP AUX)
    Blend: DEF2-TZVP-JKFIT
    Number of shells: 43
    Number of basis function: 131
    Number of Cartesian functions: 153
    Spherical Harmonics?: true
    Max angular momentum: 4

  Cached 100.0% of DFT collocation blocks in 0.294 [GiB].

  Minimum eigenvalue in the overlap matrix is 5.0050316252E-03.
  Using Symmetric Orthogonalization.

  SCF Guess: Superposition of Atomic Densities via on-the-fly atomic UHF.

  ==> Iterations <==

                           Total Energy        Delta E     RMS |[F,P]|

   @DF-UKS iter SAD:   -56.08998583501499   -5.60900e+01   0.00000e+00 
   @DF-UKS iter   1:   -56.38007056018716   -2.90085e-01   1.37219e-02 DIIS
   @DF-UKS iter   2:   -56.41264707909772   -3.25765e-02   1.23418e-02 DIIS
   @DF-UKS iter   3:   -56.55291395570024   -1.40267e-01   5.05948e-04 DIIS
   @DF-UKS iter   4:   -56.55334716933586   -4.33214e-04   1.05899e-04 DIIS
   @DF-UKS iter   5:   -56.55336901082961   -2.18415e-05   2.29034e-05 DIIS
   @DF-UKS iter   6:   -56.55337005294884   -1.04212e-06   4.64080e-06 DIIS
   @DF-UKS iter   7:   -56.55337011434320   -6.13944e-08   1.06097e-06 DIIS
   @DF-UKS iter   8:   -56.55337012067561   -6.33241e-09   1.97970e-07 DIIS
  Energy and wave function converged.


  ==> Post-Iterations <==

   @Spin Contamination Metric:   9.769962617E-15
   @S^2 Expected:                0.000000000E+00
   @S^2 Observed:                9.769962617E-15
   @S   Expected:                0.000000000E+00
   @S   Observed:                0.000000000E+00

    Orbital Energies [Eh]
    ---------------------

    Alpha Occupied:                                                       

       1A    -14.571317     2A     -0.985022     3A     -0.575354  
       4A     -0.575316     5A     -0.383125  

    Alpha Virtual:                                                        

       6A      0.087691     7A      0.159455     8A      0.159456  
       9A      0.384530    10A      0.384554    11A      0.456657  
      12A      0.512913    13A      0.588169    14A      0.594766  
      15A      0.594791    16A      0.997830    17A      0.997848  
      18A      1.232460    19A      1.326435    20A      1.326455  
      21A      1.698395    22A      1.811206    23A      1.811231  
      24A      1.870070    25A      2.031367    26A      2.099154  
      27A      2.099195    28A      2.363321    29A      2.400248  
      30A      2.400326    31A      2.474867    32A      2.538247  
      33A      2.538398    34A      3.034012    35A      3.254608  
      36A      3.254663    37A      4.059458    38A      4.307600  
      39A      4.307697    40A      4.454393    41A      4.603721  
      42A      4.603777    43A      4.605897    44A      4.875448  
      45A      4.875521    46A      5.348596    47A      5.348683  
      48A      5.680981    49A     31.337486  

    Beta Occupied:                                                        

       1A    -14.571317     2A     -0.985022     3A     -0.575354  
       4A     -0.575316     5A     -0.383125  

    Beta Virtual:                                                         

       6A      0.087691     7A      0.159455     8A      0.159456  
       9A      0.384530    10A      0.384554    11A      0.456657  
      12A      0.512913    13A      0.588169    14A      0.594766  
      15A      0.594791    16A      0.997830    17A      0.997848  
      18A      1.232460    19A      1.326435    20A      1.326455  
      21A      1.698395    22A      1.811206    23A      1.811231  
      24A      1.870070    25A      2.031367    26A      2.099154  
      27A      2.099195    28A      2.363321    29A      2.400248  
      30A      2.400326    31A      2.474867    32A      2.538247  
      33A      2.538398    34A      3.034012    35A      3.254608  
      36A      3.254663    37A      4.059458    38A      4.307600  
      39A      4.307697    40A      4.454393    41A      4.603721  
      42A      4.603777    43A      4.605897    44A      4.875448  
      45A      4.875521    46A      5.348596    47A      5.348683  
      48A      5.680981    49A     31.337486  

    Final Occupation by Irrep:
              A 
    DOCC [     5 ]
    SOCC [     0 ]

  @DF-UKS Final Energy:   -56.55337012067561

   => Energetics <=

    Nuclear Repulsion Energy =             11.9118590025880593
    One-Electron Energy =                 -99.6385219902748247
    Two-Electron Energy =                  35.1341238164611127
    DFT Exchange-Correlation Energy =      -3.9608309494499565
    Empirical Dispersion Energy =           0.0000000000000000
    VV10 Nonlocal Energy =                  0.0000000000000000
    Total Energy =                        -56.5533701206756092

  UHF NO Occupations:
  HONO-2 :    3  A 2.0000000
  HONO-1 :    4  A 2.0000000
  HONO-0 :    5  A 2.0000000
  LUNO+0 :    6  A 0.0000000
  LUNO+1 :    7  A 0.0000000
  LUNO+2 :    8  A 0.0000000
  LUNO+3 :    9  A 0.0000000


Computation Completed


Properties will be evaluated at   0.000000,   0.000000,   0.000000 [a0]

Properties computed using the SCF density matrix

  Nuclear Dipole Moment: [e a0]
     X:     0.6997      Y:    -0.2951      Z:    -0.4718

  Electronic Dipole Moment: [e a0]
     X:    -0.1304      Y:     0.0549      Z:     0.0879

  Dipole Moment: [e a0]
     X:     0.5693      Y:    -0.2402      Z:    -0.3839     Total:     0.7275

  Dipole Moment: [D]
     X:     1.4471      Y:    -0.6105      Z:    -0.9759     Total:     1.8491


*** tstop() called on rh05314.villa-bosch.de at Wed Feb  5 14:14:35 2020
Module time:
	user time   =       2.90 seconds =       0.05 minutes
	system time =       0.07 seconds =       0.00 minutes
	total time  =          3 seconds =       0.05 minutes
Total time:
	user time   =       2.90 seconds =       0.05 minutes
	system time =       0.07 seconds =       0.00 minutes
	total time  =          3 seconds =       0.05 minutes

    Psi4 stopped on: Wednesday, 05 February 2020 02:14PM
    Psi4 wall time for execution: 0:00:03.15

*** Psi4 exiting successfully. Buy a developer a beer!
