[Molden Format]
[Atoms] (AU)
C    1    6         0.000000021757       0.000000020110       0.000000000117
O    2    8         0.000000021757       0.000000020110       2.192037283393
O    3    8        -0.000000038081      -0.000000035197      -2.192037283480
[GTO]
  1 0
 s    6  1.00
    13575.3496820000         0.0002224581
     2035.2333680000         0.0017232738
      463.2256235900         0.0089255715
      131.2001959800         0.0357279845
       42.8530158910         0.1107625993
       15.5841857660         0.2429562763
 s    2  1.00
        6.2067138508         0.4144026345
        2.5764896527         0.2374496866
 s    1  1.00
        0.5769633942         1.0000000000
 s    1  1.00
        0.2297283136         1.0000000000
 s    1  1.00
        0.0951644400         1.0000000000
 p    4  1.00
       34.6972322440         0.0053333658
        7.9582622826         0.0358641091
        2.3780826883         0.1421587333
        0.8143320818         0.3427047185
 p    1  1.00
        0.2888754725         1.0000000000
 p    1  1.00
        0.1005682367         1.0000000000
 d    1  1.00
        1.0970000000         1.0000000000
 d    1  1.00
        0.3180000000         1.0000000000
 f    1  1.00
        0.7610000000         1.0000000000

  2 0
 s    6  1.00
    27032.3826310000         0.0002172630
     4052.3871392000         0.0016838662
      922.3272271000         0.0087395616
      261.2407098900         0.0352399688
       85.3546413510         0.1115351912
       31.0350352450         0.2558895396
 s    2  1.00
       12.2608607280         0.3976873090
        4.9987076005         0.2462784943
 s    1  1.00
        1.1703108158         1.0000000000
 s    1  1.00
        0.4647474099         1.0000000000
 s    1  1.00
        0.1850453636         1.0000000000
 p    4  1.00
       63.2749548010         0.0060685103
       14.6270493790         0.0419125758
        4.4501223456         0.1615384109
        1.5275799647         0.3570695131
 p    1  1.00
        0.5293511794         1.0000000000
 p    1  1.00
        0.1747842127         1.0000000000
 d    1  1.00
        2.3140000000         1.0000000000
 d    1  1.00
        0.6450000000         1.0000000000
 f    1  1.00
        1.4280000000         1.0000000000

  3 0
 s    6  1.00
    27032.3826310000         0.0002172630
     4052.3871392000         0.0016838662
      922.3272271000         0.0087395616
      261.2407098900         0.0352399688
       85.3546413510         0.1115351912
       31.0350352450         0.2558895396
 s    2  1.00
       12.2608607280         0.3976873090
        4.9987076005         0.2462784943
 s    1  1.00
        1.1703108158         1.0000000000
 s    1  1.00
        0.4647474099         1.0000000000
 s    1  1.00
        0.1850453636         1.0000000000
 p    4  1.00
       63.2749548010         0.0060685103
       14.6270493790         0.0419125758
        4.4501223456         0.1615384109
        1.5275799647         0.3570695131
 p    1  1.00
        0.5293511794         1.0000000000
 p    1  1.00
        0.1747842127         1.0000000000
 d    1  1.00
        2.3140000000         1.0000000000
 d    1  1.00
        0.6450000000         1.0000000000
 f    1  1.00
        1.4280000000         1.0000000000

[5D]
[9G]

[MO]
 Sym= A
 Ene= -1.91347285962729643e+01
 Spin= Alpha
 Occup=  1.00000000000000000e+00
  1  2.57227319291129234e-06
  2 -1.59257367900158366e-05
  3 -3.13205441380068990e-04
  4  2.60284415092877164e-03
  5 -1.04672881388493958e-04
  6  1.34822818295626051e-11
  7  1.24603772410725041e-11
  8  1.09048509947411968e-03
  9 -1.37716573342345934e-11
 10 -1.27287312499619177e-11
 11 -2.76790983516812409e-05
 12 -5.51879196392389150e-11
 13 -5.10099330436969147e-11
 14 -4.32941942080917238e-03
 15  8.01948713224662029e-05
 16 -1.07393255235024500e-11
 17 -9.92650391572545266e-12
 18 -4.40753247099206369e-16
 19 -7.15431069657722104e-16
 20  1.11479201814749986e-03
 21 -8.31197215184353909e-11
 22 -7.68262202576549704e-11
 23  2.56838041946355384e-16
 24  8.25612301055077202e-16
 25 -1.50977987294020205e-03
 26 -4.72919580940919353e-11
 27 -4.37107737862166807e-11
 28  6.60981169868410981e-17
 29 -1.08299036435674875e-16
 30  9.42327179695465854e-17
 31  2.34777575354448944e-16
 32  3.32094403726126475e-01
 33  4.87925509159723547e-01
 34  2.45342521698608332e-02
 35 -1.54009637789991691e-02
 36  8.46347064203193181e-03
 37  1.75619295296904722e-13
 38  1.61506704169445604e-13
 39 -1.92968929615131273e-03
 40  4.90571407549161884e-11
 41  4.53435556234186781e-11
 42  2.12228212521296550e-03
 43  4.18362290825681238e-11
 44  3.86680843498638850e-11
 45 -7.90899454986262389e-04
 46  3.90374456429565231e-04
 47  3.34639062599955871e-12
 48  3.09298596916392234e-12
 49  6.20379835590917132e-16
 50 -2.77334527897490726e-16
 51 -6.39746934913911218e-04
 52 -4.75739484640576308e-11
 53 -4.39720007453974484e-11
 54  1.16588713397007170e-15
 55 -1.03678796142875726e-15
 56  2.23453129792792294e-05
 57  1.32321963997031088e-11
 58  1.22308433741098187e-11
 59  7.04615096160576695e-16
 60  7.03988459763787320e-17
 61  5.98467162881850959e-15
 62 -7.98771664183199551e-15
 63 -2.81882270978631166e-01
 64 -4.14161617171884655e-01
 65 -2.05637855758363138e-02
 66  1.09956136896672239e-02
 67 -8.71165283431159579e-03
 68 -4.03840477457066540e-11
 69 -3.73244227543473662e-11
 70 -1.60318121163681155e-03
 71 -5.04959533825057604e-11
 72 -4.66743596455445080e-11
 73  7.09828445454495469e-04
 74 -8.07820388592779909e-11
 75 -7.46629236310085050e-11
 76 -1.02107656935143112e-03
 77 -3.62713910712559532e-04
 78 -1.18237576370026552e-11
 79 -1.09283612907502439e-11
 80 -5.09002759734260257e-16
 81  6.22502313178768696e-16
 82  3.95707351153588383e-04
 83 -4.41542458915044505e-11
 84 -4.08107267539690907e-11
 85 -9.23131659919978513e-16
 86  8.31560681268602151e-16
 87 -5.69084196830173981e-06
 88 -1.62599397145259327e-11
 89 -1.50287757635163037e-11
 90  2.89125941944756127e-16
 91  2.94730153459106511e-17
 92 -5.58915065806276311e-15
 93  6.02236401187958769e-15
 Sym= A
 Ene= -1.91347270365421132e+01
 Spin= Alpha
 Occup=  1.00000000000000000e+00
  1 -3.14536361680041926e-05
  2  1.94739143793083133e-04
  3  3.82985931167452269e-03
  4 -3.18274406777882546e-02
  5  1.27993391355748706e-03
  6  1.83605230315515862e-11
  7  1.69712513541980813e-11
  8  8.91798398050324624e-05
  9  1.63735628691723200e-10
 10  1.51338782409838033e-10
 11 -2.26359651610933785e-06
 12 -5.25670739460883840e-11
 13 -4.85881889322426038e-11
 14 -3.54059744797878204e-04
 15 -9.80618867248059765e-04
 16 -2.42160289200896030e-11
 17 -2.23822464493609681e-11
 18  2.43623882360494232e-16
 19 -2.83789859486535217e-16
 20 -1.36316176004838089e-02
 21 -3.31214985408620619e-10
 22 -3.06133827825692643e-10
 23 -6.38762262322498148e-16
 24 -5.73787658521479054e-16
 25 -1.23469745653762605e-04
 26 -4.30763496612074888e-11
 27 -3.98143306060725930e-11
 28 -3.09891266791846824e-16
 29  2.04167767177280633e-16
 30  1.09607759230136866e-15
 31 -1.29034399360556396e-15
 32 -2.81889990483882968e-01
 33 -4.14103915410027557e-01
 34 -2.24312636440786306e-02
 35  2.58548360603615447e-02
 36  2.21967089494513664e-03
 37 -2.18743186802559869e-11
 38 -2.02161931392691704e-11
 39  1.85180280125499036e-03
 40  1.32144628778006720e-10
 41  1.22135587716485516e-10
 42 -8.51989948887932509e-03
 43  7.15608261759485233e-11
 44  6.61436717942821500e-11
 45 -1.48138867365641097e-03
 46 -1.38322058155351731e-04
 47  1.24587650613212052e-11
 48  1.15154709821987006e-11
 49 -1.83935358634474263e-16
 50  7.80441383560166973e-17
 51  1.44971196824563602e-03
 52 -9.80041131199541267e-11
 53 -9.05822274566508976e-11
 54  3.88712402291043093e-16
 55  3.61720943684214982e-16
 56 -1.70731366580971012e-04
 57  1.73746744842584953e-11
 58  1.60591181142205842e-11
 59 -1.07382507891140914e-16
 60 -3.31921922849948239e-16
 61 -4.96220101277446548e-15
 62  6.59951953786036989e-15
 63 -3.32100955718971746e-01
 64 -4.87876531377991196e-01
 65 -2.61193787599250452e-02
 66  2.80135469840534050e-02
 67  8.15090021331559109e-04
 68 -8.00497852905226295e-11
 69 -7.39870175566389646e-11
 70 -2.14072084933816667e-03
 71  3.61315849371953059e-10
 72  3.33956153524515639e-10
 73  8.75150940121526520e-03
 74  1.00208159227413030e-10
 75  9.26208880671201568e-11
 76  1.33320535246886536e-03
 77 -1.99909599013533586e-04
 78 -2.12022292189741461e-11
 79 -1.95970187435810026e-11
 80 -1.52266764525524520e-16
 81  1.18396119549091489e-16
 82  1.53439139436988004e-03
 83  1.61520797533500466e-10
 84  1.49290211681876652e-10
 85  8.28039911599484173e-16
 86  1.93180630002977753e-16
 87  1.72093372267334642e-04
 88  2.65025943915172376e-11
 89  2.44946892638618944e-11
 90  1.70875341907002143e-16
 91  2.27390668096877909e-16
 92 -6.20234423715307884e-15
 93  7.52426156802328835e-15
 Sym= A
 Ene= -1.02909586395981680e+01
 Spin= Alpha
 Occup=  1.00000000000000000e+00
  1 -4.67458942026935720e-01
  2 -6.08737671141504122e-01
  3 -3.60570747568574809e-02
  4  1.52781360262664295e-02
  5 -2.05775521806884736e-03
  6  4.86806986488737043e-11
  7  4.49952438517330393e-11
  8 -5.97625472592885845e-10
  9  1.17979698209836550e-10
 10  1.09047869315835244e-10
 11 -5.15837589348806577e-10
 12 -6.86354569424658171e-11
 13 -6.34385319722628200e-11
 14 -3.61486064199935719e-11
 15 -4.08705396500820724e-03
 16 -9.66216426562478775e-11
 17 -8.93049807644524535e-11
 18 -3.27054061474810141e-16
 19 -2.80556310215214114e-16
 20 -6.91174646054565551e-04
 21 -1.63396288485987068e-11
 22 -1.51036979702244355e-11
 23  2.27368749197120014e-16
 24 -1.11210644690359886e-16
 25 -9.70652128864916170e-11
 26  8.18409797194570380e-11
 27  7.56452731352715179e-11
 28  2.90350331558722800e-16
 29 -3.55200401606611201e-17
 30 -6.31005889925104838e-15
 31  8.00731645097962243e-15
 32  1.07710620909340921e-04
 33  2.93324674813961247e-04
 34 -2.24410572636343699e-03
 35  5.89002696765287409e-03
 36 -2.81970721997230759e-03
 37  1.48389576455538241e-12
 38  1.37170534304781793e-12
 39  5.27908056886813946e-04
 40 -4.14068280958773804e-11
 41 -3.82720597658357353e-11
 42 -4.66827437956097296e-03
 43  1.67309216722885017e-11
 44  1.54639380600534830e-11
 45  1.88647621597602200e-03
 46 -3.87762430453865672e-05
 47  2.08363219524500126e-12
 48  1.92581906828099913e-12
 49  3.59415535332348821e-16
 50  2.93860770712017487e-16
 51  2.47327515183779541e-03
 52  2.59553198779940679e-11
 53  2.39905190882906947e-11
 54 -4.82874132821015350e-16
 55 -3.07074029738295042e-16
 56 -5.33952782936169645e-04
 57 -3.41311444670935428e-12
 58 -3.15492984126546799e-12
 59 -1.50396955967065342e-16
 60 -2.00082022295891727e-16
 61  7.34021345361997026e-16
 62 -1.43646090521734992e-16
 63  1.07710618961738848e-04
 64  2.93324661578963297e-04
 65 -2.24410551510017316e-03
 66  5.89002616417233765e-03
 67 -2.81970764849018025e-03
 68 -1.29273261347004595e-11
 69 -1.19483544613639137e-11
 70 -5.27908009215233938e-04
 71  8.60282207673097895e-11
 72  7.95127301133734824e-11
 73  4.66827374233792173e-03
 74 -3.47662968238547074e-11
 75 -3.21348352322719500e-11
 76 -1.88647636879733121e-03
 77 -3.87762389205257682e-05
 78 -3.91739008743614935e-12
 79 -3.62035307861730542e-12
 80 -2.50867915627576472e-16
 81  1.20688610947838119e-16
 82  2.47327487194582037e-03
 83  9.09849162799884362e-11
 84  8.40938689592362499e-11
 85  2.25955441324234681e-16
 86  1.06928037746580160e-16
 87  5.33952709918965166e-04
 88  3.22905534402118558e-11
 89  2.98450397392869449e-11
 90  4.07376100030859585e-16
 91  3.67421175709605872e-16
 92  4.47318529399801203e-16
 93 -5.97332390646283910e-16
 Sym= A
 Ene= -1.13924088337862095e+00
 Spin= Alpha
 Occup=  1.00000000000000000e+00
  1 -7.46278644059171770e-02
  2 -1.58403746939307977e-01
  3  2.62657914174164731e-01
  4  1.35703909364849440e-01
  5  3.11684713856729854e-03
  6 -2.83177494008648434e-09
  7 -2.61734492468613242e-09
  8  3.10866897827411056e-07
  9 -1.18029929006498133e-09
 10 -1.09092778232251296e-09
 11  1.62755151046129834e-07
 12  1.52542634644999982e-10
 13  1.40992927853484761e-10
 14  7.83572186862756588e-10
 15  3.21124734380171320e-02
 16  7.59162024017233763e-10
 17  7.01677832459513141e-10
 18 -8.77619230135850911e-15
 19  4.85184239211122877e-16
 20  8.12262674591913980e-03
 21  1.92022779256610588e-10
 22  1.77486262331239927e-10
 23  1.29552432562602886e-14
 24  1.71910191639951092e-17
 25  2.22857366162583613e-08
 26 -6.26657614502401551e-10
 27 -5.79207437332066225e-10
 28 -1.66734183635128487e-15
 29  3.93153302082564624e-16
 30 -5.88681977147318721e-15
 31  6.51323028348714650e-15
 32 -6.16999575766320543e-02
 33 -1.46010708321904548e-01
 34  2.14654204811761395e-01
 35  2.65871319964694486e-01
 36  7.49604344105462145e-02
 37 -1.97403960837748074e-10
 38 -1.82453558473313108e-10
 39 -9.39279023985935407e-02
 40  1.52471405999835380e-10
 41  1.40928945900434257e-10
 42 -6.62699960727211324e-02
 43 -5.89056645101634598e-11
 44 -5.44470719032893060e-11
 45 -8.19036705155145629e-03
 46  5.53640330925825666e-03
 47  3.75007044645428894e-12
 48  3.46571382666269116e-12
 49  1.32649627345659742e-15
 50  2.98274937507101781e-16
 51  9.00936310440121103e-03
 52 -2.15707468884487255e-10
 53 -1.99374100898817549e-10
 54 -5.11262610877226454e-15
 55 -7.28678393219567199e-16
 56 -1.68367866978762432e-03
 57  5.32442928184086379e-11
 58  4.92126913642567244e-11
 59  2.81777017524705072e-15
 60  2.35513337673441715e-16
 61 -2.11975611760222583e-14
 62  2.67163458611310186e-14
 63 -6.16997809688188820e-02
 64 -1.46010290097803558e-01
 65  2.14653578421585389e-01
 66  2.65870602576178838e-01
 67  7.49602588499010819e-02
 68  2.36663606393493026e-09
 69  2.18743436807532110e-09
 70  9.39276534665826196e-02
 71  1.96150531163700095e-09
 72  1.81298197099285989e-09
 73  6.62698538551867999e-02
 74  1.64674429653994767e-10
 75  1.52206427753297017e-10
 76  8.19036581661643746e-03
 77  5.53638850614950398e-03
 78  2.58019355628489478e-10
 79  2.38481759430854885e-10
 80  3.47074811251001083e-15
 81 -4.76223458968866642e-16
 82  9.00934441948849848e-03
 83  6.41682004234775049e-10
 84  5.93095686747244260e-10
 85  9.28201624447705838e-17
 86  1.17383187559686837e-15
 87  1.68367226104995681e-03
 88  1.65825849148060301e-10
 89  1.53269599967095511e-10
 90 -7.21737965256146061e-17
 91  1.13355188538241936e-16
 92 -2.14942569428462248e-14
 93  2.67013792578196423e-14
 Sym= A
 Ene= -1.09841899575502699e+00
 Spin= Alpha
 Occup=  1.00000000000000000e+00
  1  9.96956341613626126e-08
  2  2.11933819853896352e-07
  3 -3.52681433765948669e-07
  4 -1.93615406742570274e-07
  5 -7.06418860787803853e-09
  6  3.37719688792543256e-09
  7  3.12147120478112622e-09
  8  2.47431384601181914e-01
  9  1.78341809678883569e-09
 10  1.64837913969362051e-09
 11  1.30662819787462525e-01
 12  2.56453343748662349e-11
 13  2.37008519650410179e-11
 14  1.87880299894124282e-03
 15 -4.04738599210915661e-08
 16 -7.25238886163498049e-10
 17 -6.70322452807225461e-10
 18 -2.08781758561495505e-15
 19 -1.29178288130216366e-16
 20 -1.02346846464865271e-08
 21 -2.33752319857242212e-10
 22 -2.16053795634607479e-10
 23 -2.72164204975889454e-16
 24  4.67511195296597658e-16
 25  1.73929779948984384e-02
 26  5.81501031729732212e-10
 27  5.37470858545371471e-10
 28 -2.04051449550938137e-15
 29 -2.06269267276415107e-16
 30 -5.92435764420038379e-17
 31  2.11581512043723373e-16
 32 -6.74889914414008446e-02
 33 -1.59744193752683200e-01
 34  2.35833047801181916e-01
 35  2.74142962625246900e-01
 36  6.92466873996485099e-02
 37  3.26305805999760225e-10
 38  3.01600359801834485e-10
 39 -9.63181802717403140e-02
 40 -3.24065061170947960e-11
 41 -2.99526446509129204e-11
 42 -5.54839689110710466e-02
 43  1.72478536446534619e-11
 44  1.59443672849588154e-11
 45 -6.52728442360429417e-04
 46  5.84645943992617712e-03
 47 -3.66804699182567609e-11
 48 -3.39030840887727879e-11
 49  1.22786726689065117e-15
 50  6.58415835854859295e-17
 51  7.24215287714053465e-03
 52  1.32896204614339371e-10
 53  1.22833262765879459e-10
 54 -3.63009671656098707e-15
 55 -9.99295957104789586e-16
 56 -2.47009612517989398e-03
 57 -2.77443033582403316e-11
 58 -2.56438356435645516e-11
 59  3.12420153486648163e-15
 60  5.40437858161419357e-17
 61 -2.40740867950754802e-14
 62  2.96019821083175990e-14
 63  6.74891460272473154e-02
 64  1.59744559250058621e-01
 65 -2.35833574073466584e-01
 66 -2.74143628154973784e-01
 67 -6.92468796779894813e-02
 68 -2.95561018826430470e-09
 69 -2.73181042438704638e-09
 70 -9.63184256128641336e-02
 71 -1.48219806199962740e-09
 72 -1.36996876599295273e-09
 73 -5.54841448072657534e-02
 74 -3.50691431758613038e-11
 75 -3.24138137837826707e-11
 76 -6.52750450720285974e-04
 77 -5.84647410849651727e-03
 78 -3.13111382100220274e-10
 79 -2.89401821699982660e-10
 80 -3.62642157402179431e-15
 81  6.43486324956882540e-16
 82 -7.24217703203963725e-03
 83 -2.09523919699677737e-10
 84 -1.93660686370710661e-10
 85 -2.22061723854231707e-15
 86 -1.17928722138823129e-15
 87 -2.47010059909348470e-03
 88 -1.37422463417529297e-10
 89 -1.27017058671951032e-10
 90  2.65911789575210422e-16
 91 -2.47814786618830983e-16
 92  2.38322280915951768e-14
 93 -3.00222119619619101e-14
 Sym= A
 Ene= -5.46423320413429114e-01
 Spin= Alpha
 Occup=  1.00000000000000000e+00
  1 -6.67940925041533712e-02
  2 -1.46824048411936581e-01
  3  2.64810462999907514e-01
  4  2.72055284092389771e-01
  5  7.83136377426386920e-03
  6  4.31165958264996591e-10
  7  3.98519954266196592e-10
  8  3.35804038933080972e-07
  9  7.67485370571604299e-10
 10  7.09371338259457800e-10
 11  2.27644918712383473e-07
 12  9.41026151728276243e-10
 13  8.69770015738579282e-10
 14 -3.04701118741900145e-08
 15  1.30424398243881995e-02
 16  3.08331933541836189e-10
 17  2.84984913159075847e-10
 18 -1.14715619703805909e-14
 19  8.44504986572658414e-16
 20 -6.09224237270714151e-03
 21 -1.44023994180603179e-10
 22 -1.33120423721554321e-10
 23  1.28488912867643649e-14
 24  1.80074880248141788e-16
 25  2.02739210677262214e-08
 26 -3.32419167867604171e-10
 27 -3.07247698253014026e-10
 28 -1.14344154299436376e-15
 29  2.58854005229540126e-17
 30 -4.17961169531277524e-15
 31  4.16565086565168036e-15
 32  4.26813227216572763e-02
 33  1.02338565962504943e-01
 34 -1.53982950671373658e-01
 35 -2.41941224983410946e-01
 36 -1.80607253389584527e-01
 37  6.54856021245512529e-10
 38  6.05268175881495005e-10
 39 -2.44861782801166911e-01
 40  8.24168991264920981e-10
 41  7.61761399467887218e-10
 42 -1.77894606447953990e-01
 43  5.80332054149678633e-12
 44  5.36702468039754632e-12
 45 -7.84475844085563562e-02
 46  7.22446028170292513e-03
 47 -2.93559477739992862e-11
 48 -2.71321029429591404e-11
 49 -9.58249802009564758e-16
 50 -2.19474792074397272e-17
 51  1.05032385892157125e-02
 52 -2.01485418938065387e-10
 53 -1.86230694648230646e-10
 54 -1.54628260159864051e-15
 55  1.18441951589792281e-15
 56 -1.66611120209609600e-03
 57  7.19282026994568044e-11
 58  6.64814217181676548e-11
 59 -2.04422554239314929e-15
 60  4.71364906778445038e-16
 61  1.92083937427607984e-14
 62 -2.38611386317814062e-14
 63  4.26812447560376632e-02
 64  1.02338378801667268e-01
 65 -1.53982671855083242e-01
 66 -2.41940684188164584e-01
 67 -1.80606882530731289e-01
 68  7.33907749122269582e-09
 69  6.78334849441402998e-09
 70  2.44861011811276980e-01
 71  5.68032715841078766e-09
 72  5.25020100299503430e-09
 73  1.77894072329099262e-01
 74  2.14726416350170018e-09
 75  1.98466678123871585e-09
 76  7.84473652913590808e-02
 77  7.22443791518304502e-03
 78  3.70938484871965351e-10
 79  3.42851181354982531e-10
 80 -2.35607400577333505e-15
 81  1.02304515910390846e-15
 82  1.05032108813754958e-02
 83  6.98095822994712375e-10
 84  6.45233416947816438e-10
 85 -2.38614570943170294e-15
 86 -6.76102894283788503e-16
 87  1.66610397518724448e-03
 88  1.83332324520276235e-10
 89  1.69451459353711441e-10
 90  4.34443022192451949e-15
 91 -3.22110114892695640e-16
 92  1.93457282547241740e-14
 93 -2.41644222905798399e-14
 Sym= A
 Ene= -5.00559968734100025e-01
 Spin= Alpha
 Occup=  1.00000000000000000e+00
  1  8.69908738271035628e-08
  2  1.91424081780562576e-07
  3 -3.46695871174021230e-07
  4 -3.68415463806303334e-07
  5 -1.27672076811859899e-08
  6  3.60036817193094970e-09
  7  3.32686857706915060e-09
  8  2.63760471715799139e-01
  9  2.36439556982907857e-09
 10  2.18466660441009257e-09
 11  1.73211224318639029e-01
 12 -5.08622048158750426e-10
 13 -4.70267746385952030e-10
 14 -3.72684152136332561e-02
 15 -1.24817122471500855e-08
 16 -2.81961617869911339e-10
 17 -2.60610667371252407e-10
 18 -1.72464386808815384e-15
 19  6.07634956623357631e-17
 20  1.39850653824301297e-08
 21  3.92304675213154281e-10
 22  3.62598151994682611e-10
 23 -3.83857723638522964e-16
 24 -7.11633987499126323e-17
 25  1.52286770227404479e-02
 26  5.09156296505347911e-10
 27  4.70553878379812925e-10
 28 -4.54867418788397593e-15
 29  4.53783273881518646e-16
 30 -2.21159076978874896e-17
 31  8.62292386311275357e-17
 32  3.16759277141656775e-02
 33  7.59305207661955389e-02
 34 -1.09974508924308573e-01
 35 -2.16975533306264984e-01
 36 -1.44911127387221506e-01
 37  2.29477740532626043e-09
 38  2.12025555343388202e-09
 39 -2.95722877770783432e-01
 40  1.53269502412729567e-09
 41  1.41602163036294355e-09
 42 -2.07589171284617124e-01
 43  1.06047306693210497e-09
 44  9.79898045517938701e-10
 45 -9.39777444120875188e-02
 46  8.71764592315668434e-03
 47 -8.14307120456671626e-11
 48 -7.52388803104312968e-11
 49 -9.39050429730713718e-16
 50 -1.86114469432763812e-16
 51  1.14177353888827732e-02
 52  1.90034385953957027e-11
 53  1.76179077843526383e-11
 54 -1.35451352624178061e-15
 55  9.12387734475879197e-17
 56 -2.88280137202261188e-03
 57  2.38646045632551615e-11
 58  2.20459007135640297e-11
 59 -1.98063567612564906e-15
 60  4.15146378817546375e-16
 61  1.43981611572058328e-14
 62 -1.83687025049818475e-14
 63 -3.16760383115594277e-02
 64 -7.59307860496199888e-02
 65  1.09974905547172985e-01
 66  2.16976154682120448e-01
 67  1.44911613679837376e-01
 68 -1.03669243688684159e-08
 69 -9.58267955395940929e-09
 70 -2.95723463195920078e-01
 71 -7.19905463362230747e-09
 72 -6.65454381849199320e-09
 73 -2.07589602036983817e-01
 74 -3.62569939307030333e-09
 75 -3.35142945194835208e-09
 76 -9.39779552438159971e-02
 77 -8.71766402077323900e-03
 78 -4.93598881289961392e-10
 79 -4.56248687665846090e-10
 80  1.79809443254474181e-15
 81 -7.23099414415743446e-16
 82 -1.14177641956561323e-02
 83 -5.20806796729882997e-10
 84 -4.81424146497900567e-10
 85  1.25130792855508666e-15
 86  1.89056615719299957e-15
 87 -2.88280587493751394e-03
 88 -2.16616982869126269e-10
 89 -2.00227150024509632e-10
 90 -5.20862451062313838e-15
 91  1.91226483360326448e-16
 92 -1.47148802143057714e-14
 93  1.79332599581826245e-14
 Sym= A
 Ene= -4.99470921585492444e-01
 Spin= Alpha
 Occup=  1.00000000000000000e+00
  1 -4.31888871319944280e-10
  2 -9.49715925169939136e-10
  3  1.67333944654911143e-09
  4  2.14581942180817033e-09
  5  1.51198343881775997e-09
  6 -3.42463964098583271e-03
  7  2.98535310951250576e-01
  8 -3.71889520513945117e-09
  9 -2.71337438762571945e-03
 10  2.36532351265392210e-01
 11 -2.94657530802520097e-09
 12 -6.22708189703764662e-04
 13  5.42831954707531442e-02
 14 -6.76379633030745098e-10
 15  4.11292491923651281e-10
 16 -1.50569207783446867e-10
 17  1.31254410441841304e-08
 18  3.44721436241788979e-10
 19 -3.64490222930900155e-10
 20  5.36075970482688644e-10
 21 -2.24755133804774755e-10
 22  1.95919729615345719e-08
 23  3.26412520587419231e-10
 24 -3.45104275755835556e-10
 25 -5.13618545194039885e-10
 26 -1.93077116512309832e-04
 27  1.68310663465617363e-02
 28 -3.39893665656325053e-10
 29  3.59379166346355878e-10
 30  4.67666233860443003e-09
 31  2.74430549118977380e-08
 32 -1.76970329041368194e-10
 33 -4.36942295139129277e-10
 34  7.78733082057213825e-10
 35  9.67973214243768601e-10
 36  1.57107983373756740e-09
 37 -2.93853507724902829e-03
 38  2.56160231438011865e-01
 39  2.00115094920314771e-09
 40 -2.38103158963791535e-03
 41  2.07561110224105810e-01
 42  1.35743830583250726e-09
 43 -1.07986796563154324e-03
 44  9.41350777615782980e-02
 45  4.65221016426452799e-10
 46 -5.53290683728742045e-11
 47  9.79813674944407715e-05
 48 -8.54130684638472644e-03
 49 -6.18709783080074472e-12
 50  6.57450646408577672e-12
 51 -9.28613235627117364e-11
 52  2.12848270271945360e-04
 53 -1.85545725148600314e-02
 54  3.59750365992844878e-11
 55 -3.80666901863514744e-11
 56  4.86811278196935856e-11
 57 -4.63235486193550066e-05
 58  4.03815187651557564e-03
 59 -1.83111345218457155e-11
 60  1.93592638605739191e-11
 61 -6.17546668613522846e-09
 62 -3.62381851128127839e-08
 63 -1.77097803370173734e-10
 64 -4.37250384915398214e-10
 65  7.79186305405736180e-10
 66  9.68835433512543524e-10
 67  1.57169563441982457e-09
 68 -2.93853216576333296e-03
 69  2.56159977636795710e-01
 70 -8.38529070678837879e-09
 71 -2.38102924626297247e-03
 72  2.07560905946227975e-01
 73 -6.53023956716914758e-09
 74 -1.07986679552621550e-03
 75  9.41349757604778570e-02
 76 -2.81122983810089312e-09
 77 -4.23998641017989544e-10
 78 -9.79813131927526797e-05
 79  8.54130211286473033e-03
 80 -2.24368144577408810e-10
 81  2.37262802218253277e-10
 82 -8.93699246081186450e-10
 83 -2.12848134374597027e-04
 84  1.85545606678843115e-02
 85 -4.37983777614744836e-10
 86  4.63065246896209706e-10
 87 -2.95164518405278979e-10
 88 -4.63235166700580253e-05
 89  4.03814909135191170e-03
 90 -1.44783085687818626e-10
 91  1.53087916595297999e-10
 92 -6.17546165159308514e-09
 93 -3.62381468292584077e-08
 Sym= A
 Ene= -4.99470921585249805e-01
 Spin= Alpha
 Occup=  1.00000000000000000e+00
  1 -4.78160232321207478e-10
  2 -1.05146567451876613e-09
  3  1.85261991038669388e-09
  4  2.37567746253480283e-09
  5  1.67394703247436935e-09
  6  2.98535310951323185e-01
  7  3.42463964098977183e-03
  8 -4.11817758532700170e-09
  9  2.36532351270595131e-01
 10  2.71337438756744532e-03
 11 -3.26282500177632699e-09
 12  5.42831954698840199e-02
 13  6.22708189717476241e-04
 14 -7.48724690525081619e-10
 15  4.55361389371233553e-10
 16  1.31255453905485799e-08
 17  1.50568284097288688e-10
 18 -3.64488212872613845e-10
 19 -3.44725697442267520e-10
 20  5.93489971840940038e-10
 21  1.95924513548186829e-08
 22  2.24749994995500192e-10
 23 -3.45123500343263485e-10
 24 -3.26392013939653694e-10
 25 -5.68696055757064870e-10
 26  1.68310663480368862e-02
 27  1.93077116495297615e-04
 28  3.59379703310946337e-10
 29  3.39892933590373856e-10
 30 -2.74430676375968623e-08
 31  4.67666254223435422e-09
 32 -1.96033323975089327e-10
 33 -4.84002489869911281e-10
 34  8.62525560484120367e-10
 35  1.07238585104934620e-09
 36  1.73990125822229972e-09
 37  2.56160231438039010e-01
 38  2.93853507724722894e-03
 39  2.21649723564807506e-09
 40  2.07561110222744788e-01
 41  2.38103158964757646e-03
 42  1.50353320275603248e-09
 43  9.41350777606240890e-02
 44  1.07986796564272071e-03
 45  5.15357234375682387e-10
 46 -6.12852068587142635e-11
 47 -8.54130684651474049e-03
 48 -9.79813674932121807e-05
 49  6.54681351430664047e-12
 50  6.22117182983504686e-12
 51 -1.02845683711678122e-10
 52 -1.85545725134107671e-02
 53 -2.12848270287960381e-04
 54 -3.80442758043866340e-11
 55 -3.60046695012537239e-11
 56  5.39064763839758308e-11
 57  4.03815187615957048e-03
 58  4.63235486231753082e-05
 59  1.93609459807173099e-11
 60  1.83090521127218357e-11
 61  3.62381862799127607e-08
 62 -6.17546715107185391e-09
 63 -1.95970755285501801e-10
 64 -4.83852388703811636e-10
 65  8.62310461894776281e-10
 66  1.07195045505415062e-09
 67  1.73964337334018666e-09
 68  2.56159977635809277e-01
 69  2.93853216577073199e-03
 70 -9.28271810671823581e-09
 71  2.07560905944736945e-01
 72  2.38102924628208566e-03
 73 -7.22919685653082880e-09
 74  9.41349757589162589e-02
 75  1.07986679554004971e-03
 76 -3.11210567420507549e-09
 77 -4.69395962357661767e-10
 78  8.54130211290478163e-03
 79  9.79813131929994848e-05
 80  2.37235328892505073e-10
 81  2.24402847447578037e-10
 82 -9.89410580390140664e-10
 83  1.85545606668700916e-02
 84  2.12848134385966919e-04
 85  4.63088051255350338e-10
 86  4.37953077377788233e-10
 87 -3.26779300062012507e-10
 88  4.03814909104112732e-03
 89  4.63235166731505290e-05
 90  1.53084525279822507e-10
 91  1.44788221809559855e-10
 92  3.62381554284213202e-08
 93 -6.17546112016596068e-09
 Sym= A
 Ene= -3.58435669603860363e-01
 Spin= Alpha
 Occup=  1.00000000000000000e+00
  1 -1.14889125165819488e-16
  2  2.54855214928267183e-17
  3  1.20296530260265451e-14
  4 -9.16751754198974556e-14
  5 -4.90140260586041833e-15
  6 -4.34636695854514560e-10
  7  1.44886230677910039e-07
  8  9.29499179047832203e-10
  9 -3.77889168919741048e-10
 10  1.25970672236209734e-07
 11 -1.38185734137408841e-09
 12 -1.48852152462213466e-10
 13  4.96184848161575343e-08
 14 -2.71032721897642201e-09
 15  8.08093612012221583e-10
 16  1.11302996690437986e-04
 17 -3.71031342400782449e-02
 18  4.69593491792606644e-10
 19 -5.05017255151703221e-10
 20  1.18745245399947061e-09
 21  1.63556617276744832e-04
 22 -5.45220102497178116e-02
 23  6.90053852965586423e-10
 24 -7.42107665373868136e-10
 25 -3.41487326071237773e-10
 26 -1.52503424785988339e-11
 27  5.08376926972891220e-09
 28 -2.12921169736829945e-10
 29  2.28950723039166258e-10
 30  5.64308534963558926e-16
 31  1.91159073784104531e-15
 32 -1.12317087877357361e-11
 33 -4.61564284317010493e-11
 34  2.99586972547277770e-10
 35 -5.26796360591879470e-10
 36  2.17563867299888439e-09
 37  1.04321112182773545e-03
 38 -3.47757054571415980e-01
 39 -2.98442728040015739e-09
 40  8.68256852670781722e-04
 41 -2.89435608362346330e-01
 42 -2.50986701330237576e-09
 43  5.54250215684951508e-04
 44 -1.84760705163162203e-01
 45 -1.57493517629483364e-09
 46  8.80539883045126716e-11
 47 -1.89078752372683795e-05
 48  6.30298782579907877e-03
 49  1.56018829921151216e-11
 50 -1.68141087668452357e-11
 51  1.37341791511306387e-10
 52 -5.14107931005545541e-05
 53  1.71379173482949128e-02
 54  4.97237701565384402e-11