
Host: rh05314.villa-bosch.de

Timers On : Wed Feb  5 13:15:33 2020
Timers Off: Wed Feb  5 13:21:05 2020

Wall Time:      331.61 seconds

                                                       Time (seconds)
Module                                       User      System        Wall        Calls

--------------------------------------------------------------------------------------

**************************************************************************************
