
    -----------------------------------------------------------------------
          Psi4: An Open-Source Ab Initio Electronic Structure Package
                               Psi4 1.3.2 release

                         Git: Rev {HEAD} ecbda83 


    R. M. Parrish, L. A. Burns, D. G. A. Smith, A. C. Simmonett,
    A. E. DePrince III, E. G. Hohenstein, U. Bozkaya, A. Yu. Sokolov,
    R. Di Remigio, R. M. Richard, J. F. Gonthier, A. M. James,
    H. R. McAlexander, A. Kumar, M. Saitow, X. Wang, B. P. Pritchard,
    P. Verma, H. F. Schaefer III, K. Patkowski, R. A. King, E. F. Valeev,
    F. A. Evangelista, J. M. Turney, T. D. Crawford, and C. D. Sherrill,
    J. Chem. Theory Comput. 13(7) pp 3185--3197 (2017).
    (doi: 10.1021/acs.jctc.7b00174)


                         Additional Contributions by
    P. Kraus, H. Kruse, M. H. Lechner, M. C. Schieber, R. A. Shaw,
    A. Alenaizan, R. Galvelis, Z. L. Glick, S. Lehtola, and J. P. Misiewicz

    -----------------------------------------------------------------------


    Psi4 started on: Wednesday, 05 February 2020 01:43PM

    Process ID: 819
    Host:       rh05314.villa-bosch.de
    PSIDATADIR: /media/miniconda3/envs/p4env/share/psi4
    Memory:     500.0 MiB
    Threads:    1
    
  ==> Input File <==

--------------------------------------------------------------------------

# PYTHONPATH must include directory above plugin directory.
#     Define either externally or here, then import plugin.
import psixas

molecule {
  N   -1.22651784160217      0.40019879988830      0.01704879881164
  H   -0.43885155782371      0.15100232225883      0.60864221052405
  H   -0.88355924463589      1.09440986479077     -0.64102616291803
  H   -1.44986135593823     -0.42747098693791     -0.52829484641767
symmetry c1
}

set {
  basis def2-tzvp
}


set scf {
 reference uks
 scf_type DF
}

energy('PBE')
--------------------------------------------------------------------------

*** tstart() called on rh05314.villa-bosch.de
*** at Wed Feb  5 13:43:24 2020

   => Loading Basis Set <=

    Name: DEF2-TZVP
    Role: ORBITAL
    Keyword: BASIS
    atoms 1   entry N          line   156 file /media/miniconda3/envs/p4env/share/psi4/basis/def2-tzvp.gbs 
    atoms 2-4 entry H          line    15 file /media/miniconda3/envs/p4env/share/psi4/basis/def2-tzvp.gbs 


         ---------------------------------------------------------
                                   SCF
               by Justin Turney, Rob Parrish, Andy Simmonett
                          and Daniel G. A. Smith
                              UKS Reference
                        1 Threads,    500 MiB Core
         ---------------------------------------------------------

  ==> Geometry <==

    Molecular point group: c1
    Full point group: C1

    Geometry (in Angstrom), charge = 0, multiplicity = 1:

       Center              X                  Y                   Z               Mass       
    ------------   -----------------  -----------------  -----------------  -----------------
         N           -0.053703241151     0.022649891445     0.036214781014    14.003074004430
         H            0.733963042628    -0.226546586185     0.627808192726     1.007825032230
         H            0.289255355816     0.716860956347    -0.621860180716     1.007825032230
         H           -0.277046755487    -0.805019895381    -0.509128864215     1.007825032230

  Running in c1 symmetry.

  Rotational constants: A =      9.87927  B =      9.87883  C =      6.31326 [cm^-1]
  Rotational constants: A = 296172.97164  B = 296159.82690  C = 189266.91797 [MHz]
  Nuclear repulsion =   11.911859002588059

  Charge       = 0
  Multiplicity = 1
  Electrons    = 10
  Nalpha       = 5
  Nbeta        = 5

  ==> Algorithm <==

  SCF Algorithm Type is DF.
  DIIS enabled.
  MOM disabled.
  Fractional occupation disabled.
  Guess Type is SAD.
  Energy threshold   = 1.00e-06
  Density threshold  = 1.00e-06
  Integral threshold = 0.00e+00

  ==> Primary Basis <==

  Basis Set: DEF2-TZVP
    Blend: DEF2-TZVP
    Number of shells: 23
    Number of basis function: 49
    Number of Cartesian functions: 54
    Spherical Harmonics?: true
    Max angular momentum: 3

  ==> DFT Potential <==

   => Composite Functional: PBE <= 

    PBE GGA Exchange-Correlation Functional

    J.P. Perdew et. al., Phys. Rev. Lett., 77(18), 3865-3868, 1996


    Deriv               =              1
    GGA                 =           TRUE
    Meta                =          FALSE

    Exchange Hybrid     =          FALSE
    MP2 Hybrid          =          FALSE

   => Exchange Functionals <=

    1.0000     XC_GGA_X_PBE

   => Correlation Functionals <=

    1.0000     XC_GGA_C_PBE

   => Molecular Quadrature <=

    Radial Scheme          =       TREUTLER
    Pruning Scheme         =           FLAT
    Nuclear Scheme         =       TREUTLER

    BS radius alpha        =              1
    Pruning alpha          =              1
    Radial Points          =             75
    Spherical Points       =            302
    Total Points           =          89314
    Total Blocks           =            721
    Max Points             =            255
    Max Functions          =             49

   => Loading Basis Set <=

    Name: (DEF2-TZVP AUX)
    Role: JKFIT
    Keyword: DF_BASIS_SCF
    atoms 1   entry N          line   263 file /media/miniconda3/envs/p4env/share/psi4/basis/def2-tzvp-jkfit.gbs 
    atoms 2-4 entry H          line    23 file /media/miniconda3/envs/p4env/share/psi4/basis/def2-tzvp-jkfit.gbs 

  ==> Pre-Iterations <==

   -------------------------------------------------------
    Irrep   Nso     Nmo     Nalpha   Nbeta   Ndocc  Nsocc
   -------------------------------------------------------
     A         49      49       0       0       0       0
   -------------------------------------------------------
    Total      49      49       5       5       5       0
   -------------------------------------------------------

  ==> Integral Setup <==

  DFHelper Memory: AOs need 0.003 GiB; user supplied 0.249 GiB. Using in-core AOs.

  ==> MemDFJK: Density-Fitted J/K Matrices <==

    J tasked:                   Yes
    K tasked:                    No
    wK tasked:                   No
    OpenMP threads:               1
    Memory [MiB]:               254
    Algorithm:                 Core
    Schwarz Cutoff:           1E-12
    Mask sparsity (%):       0.0000
    Fitting Condition:        1E-10

   => Auxiliary Basis Set <=

  Basis Set: (DEF2-TZVP AUX)
    Blend: DEF2-TZVP-JKFIT
    Number of shells: 43
    Number of basis function: 131
    Number of Cartesian functions: 153
    Spherical Harmonics?: true
    Max angular momentum: 4

  Cached 100.0% of DFT collocation blocks in 0.118 [GiB].

  Minimum eigenvalue in the overlap matrix is 5.0050316252E-03.
  Using Symmetric Orthogonalization.

  SCF Guess: Superposition of Atomic Densities via on-the-fly atomic UHF.

  ==> Iterations <==

                           Total Energy        Delta E     RMS |[F,P]|

   @DF-UKS iter SAD:   -56.12870496296370   -5.61287e+01   0.00000e+00 
   @DF-UKS iter   1:   -56.17753749130006   -4.88325e-02   1.85862e-02 DIIS
   @DF-UKS iter   2:   -55.33909147408481    8.38446e-01   2.93171e-02 DIIS
   @DF-UKS iter   3:   -56.49732741658232   -1.15824e+00   2.95265e-03 DIIS
   @DF-UKS iter   4:   -56.50794144763596   -1.06140e-02   2.75187e-04 DIIS
   @DF-UKS iter   5:   -56.50801385410703   -7.24065e-05   7.59349e-05 DIIS
   @DF-UKS iter   6:   -56.50801940868962   -5.55458e-06   8.94070e-06 DIIS
   @DF-UKS iter   7:   -56.50801948944043   -8.07508e-08   6.59025e-07 DIIS
  Energy and wave function converged.


  ==> Post-Iterations <==

   @Spin Contamination Metric:  -7.105427358E-15
   @S^2 Expected:                0.000000000E+00
   @S^2 Observed:               -7.105427358E-15
   @S   Expected:                0.000000000E+00
   @S   Observed:                0.000000000E+00

    Orbital Energies [Eh]
    ---------------------

    Alpha Occupied:                                                       

       1A    -13.956818     2A     -0.774010     3A     -0.410504  
       4A     -0.410463     5A     -0.219996  

    Alpha Virtual:                                                        

       6A      0.008366     7A      0.089634     8A      0.089650  
       9A      0.272713    10A      0.272736    11A      0.324825  
      12A      0.415619    13A      0.474402    14A      0.482667  
      15A      0.482706    16A      0.849482    17A      0.849505  
      18A      1.084568    19A      1.198710    20A      1.198732  
      21A      1.539323    22A      1.655654    23A      1.655664  
      24A      1.728818    25A      1.894166    26A      1.956425  
      27A      1.956458    28A      2.230902    29A      2.256321  
      30A      2.256394    31A      2.339734    32A      2.402497  
      33A      2.402640    34A      2.939798    35A      3.152864  
      36A      3.152994    37A      3.940589    38A      4.182064  
      39A      4.182172    40A      4.312979    41A      4.488926  
      42A      4.488981    43A      4.500594    44A      4.754865  
      45A      4.754934    46A      5.275532    47A      5.275615  
      48A      5.618328    49A     31.171925  

    Beta Occupied:                                                        

       1A    -13.956818     2A     -0.774010     3A     -0.410504  
       4A     -0.410463     5A     -0.219996  

    Beta Virtual:                                                         

       6A      0.008366     7A      0.089634     8A      0.089650  
       9A      0.272713    10A      0.272736    11A      0.324825  
      12A      0.415619    13A      0.474402    14A      0.482667  
      15A      0.482706    16A      0.849482    17A      0.849505  
      18A      1.084568    19A      1.198710    20A      1.198732  
      21A      1.539323    22A      1.655654    23A      1.655664  
      24A      1.728818    25A      1.894166    26A      1.956425  
      27A      1.956458    28A      2.230902    29A      2.256321  
      30A      2.256394    31A      2.339734    32A      2.402497  
      33A      2.402640    34A      2.939798    35A      3.152864  
      36A      3.152994    37A      3.940589    38A      4.182064  
      39A      4.182172    40A      4.312979    41A      4.488926  
      42A      4.488981    43A      4.500594    44A      4.754865  
      45A      4.754934    46A      5.275532    47A      5.275615  
      48A      5.618328    49A     31.171925  

    Final Occupation by Irrep:
              A 
    DOCC [     5 ]
    SOCC [     0 ]

  @DF-UKS Final Energy:   -56.50801948944043

   => Energetics <=

    Nuclear Repulsion Energy =             11.9118590025880593
    One-Electron Energy =                 -99.6162344637188966
    Two-Electron Energy =                  39.1471904815669234
    DFT Exchange-Correlation Energy =      -7.9508345098765094
    Empirical Dispersion Energy =           0.0000000000000000
    VV10 Nonlocal Energy =                  0.0000000000000000
    Total Energy =                        -56.5080194894404215

  UHF NO Occupations:
  HONO-2 :    3  A 2.0000000
  HONO-1 :    4  A 2.0000000
  HONO-0 :    5  A 2.0000000
  LUNO+0 :    6  A 0.0000000
  LUNO+1 :    7  A 0.0000000
  LUNO+2 :    8  A 0.0000000
  LUNO+3 :    9  A 0.0000000


Computation Completed


Properties will be evaluated at   0.000000,   0.000000,   0.000000 [a0]

Properties computed using the SCF density matrix

  Nuclear Dipole Moment: [e a0]
     X:     0.6997      Y:    -0.2951      Z:    -0.4718

  Electronic Dipole Moment: [e a0]
     X:    -0.1790      Y:     0.0754      Z:     0.1206

  Dipole Moment: [e a0]
     X:     0.5207      Y:    -0.2197      Z:    -0.3512     Total:     0.6654

  Dipole Moment: [D]
     X:     1.3235      Y:    -0.5585      Z:    -0.8926     Total:     1.6912


*** tstop() called on rh05314.villa-bosch.de at Wed Feb  5 13:43:26 2020
Module time:
	user time   =       1.50 seconds =       0.03 minutes
	system time =       0.06 seconds =       0.00 minutes
	total time  =          2 seconds =       0.03 minutes
Total time:
	user time   =       1.50 seconds =       0.03 minutes
	system time =       0.06 seconds =       0.00 minutes
	total time  =          2 seconds =       0.03 minutes

    Psi4 stopped on: Wednesday, 05 February 2020 01:43PM
    Psi4 wall time for execution: 0:00:01.74

*** Psi4 exiting successfully. Buy a developer a beer!
