[Molden Format]
[Atoms] (AU)
O    1    8        -0.123672762329       0.000000046922       0.000000000000
H    2    1         0.981388135752       1.445736960150       0.000000000000
H    3    1         0.981388349216      -1.445737704840       0.000000000000
[GTO]
  1 0
 s    6  1.00
    27032.3826310000         0.0002172630
     4052.3871392000         0.0016838662
      922.3272271000         0.0087395616
      261.2407098900         0.0352399688
       85.3546413510         0.1115351912
       31.0350352450         0.2558895396
 s    2  1.00
       12.2608607280         0.3976873090
        4.9987076005         0.2462784943
 s    1  1.00
        1.1703108158         1.0000000000
 s    1  1.00
        0.4647474099         1.0000000000
 s    1  1.00
        0.1850453636         1.0000000000
 p    4  1.00
       63.2749548010         0.0060685103
       14.6270493790         0.0419125758
        4.4501223456         0.1615384109
        1.5275799647         0.3570695131
 p    1  1.00
        0.5293511794         1.0000000000
 p    1  1.00
        0.1747842127         1.0000000000
 d    1  1.00
        2.3140000000         1.0000000000
 d    1  1.00
        0.6450000000         1.0000000000
 f    1  1.00
        1.4280000000         1.0000000000

  2 0
 s    3  1.00
       34.0613410000         0.0060251978
        5.1235746000         0.0450210940
        1.1646626000         0.2018972600
 s    1  1.00
        0.3272304100         1.0000000000
 s    1  1.00
        0.1030724100         1.0000000000
 p    1  1.00
        0.8000000000         1.0000000000

  3 0
 s    3  1.00
       34.0613410000         0.0060251978
        5.1235746000         0.0450210940
        1.1646626000         0.2018972600
 s    1  1.00
        0.3272304100         1.0000000000
 s    1  1.00
        0.1030724100         1.0000000000
 p    1  1.00
        0.8000000000         1.0000000000

[5D]
[9G]

[MO]
 Sym= A
 Ene= -1.89127066603259060e+01
 Spin= Alpha
 Occup=  1.00000000000000000e+00
  1  4.35767257110686757e-01
  2  6.40034998017184331e-01
  3  3.07648603335894666e-02
  4 -1.83631760507606719e-02
  5  7.28271889565390920e-03
  6  1.74781767035573450e-03
  7 -2.84338918345783306e-11
  8  1.11258151120791950e-16
  9 -2.55396756609119722e-03
 10  9.82807577114145736e-10
 11 -1.56404810587920095e-16
 12  9.63195023409512958e-04
 13  5.23088829064770739e-10
 14  3.09990254931057535e-18
 15 -1.68494508637269716e-04
 16  5.48299893882688906e-17
 17  5.12732937048076171e-17
 18 -6.16704515391748766e-05
 19 -8.07609758984815988e-12
 20  7.06128809971009195e-04
 21 -9.60681992723152873e-17
 22  2.02840265628214014e-17
 23  2.65950608368141874e-04
 24  7.23213266836546508e-10
 25  1.17238024835875997e-17
 26  1.34543919104460606e-04
 27 -1.68386713112468293e-10
 28 -1.31050753481912578e-18
 29 -1.15805552113797208e-16
 30  2.52191910146707266e-04
 31 -7.70862764604305663e-12
 32  6.36176052814343192e-04
 33  1.24880596761005867e-03
 34 -1.51757592873829131e-03
 35 -4.57046028336808609e-04
 36 -6.80219790635592939e-04
 37  1.30304137524998496e-17
 38  6.36176071587061815e-04
 39  1.24880696152487327e-03
 40 -1.51757447473238908e-03
 41 -4.57047138288671940e-04
 42  6.80221319294009585e-04
 43  2.74984252031100838e-16
 Sym= A
 Ene= -9.47710088987557819e-01
 Spin= Alpha
 Occup=  1.00000000000000000e+00
  1  9.66873076362909922e-02
  2  2.29867985009916259e-01
  3 -3.35499138543517039e-01
  4 -4.39224518803116637e-01
  5 -1.57744684866231416e-01
  6 -8.68748488229645899e-02
  7 -6.74904795177732756e-08
  8 -5.36748409551439081e-16
  9 -7.33700711713589637e-02
 10 -2.70846607229158577e-08
 11 -1.76187075507384999e-16
 12 -1.33631900752127896e-02
 13 -2.20815794810337672e-09
 14 -3.09411492117657717e-16
 15  4.45515754391933704e-03
 16  1.31902382486644657e-16
 17 -2.01923173041871816e-16
 18  1.04144024758827608e-03
 19 -7.01052139222996612e-09
 20  1.08422391011757172e-02
 21  4.70171880266873348e-18
 22  1.16057552972216184e-16
 23  1.17816609685506674e-03
 24  1.21998053961787553e-09
 25 -7.85973068923025812e-17
 26  2.68249702335908880e-03
 27  1.69481885696835393e-09
 28 -6.23229097329212809e-17
 29 -7.99145847041933210e-17
 30  4.03708098477667185e-03
 31 -2.01522322630655762e-09
 32 -9.52286381128212567e-02
 33 -6.99964687255265755e-02
 34 -4.54482947760738529e-03
 35  7.31070780647275105e-03
 36  1.38480775026722947e-02
 37 -2.18656463106786097e-16
 38 -9.52285219929945304e-02
 39 -6.99964058082707119e-02
 40 -4.54482245909733611e-03
 41  7.31069122462211368e-03
 42 -1.38480632553284466e-02
 43  5.93134404574936631e-17
 Sym= A
 Ene= -4.84180155709725557e-01
 Spin= Alpha
 Occup=  1.00000000000000000e+00
  1  1.91437635170440350e-08
  2  4.55175476028280965e-08
  3 -5.87226951637073956e-08
  4 -1.39669004209815374e-07
  5 -1.22967082460103954e-07
  6  9.42079213638414377e-08
  7  3.81268646705269665e-01
  8  1.45699072210506557e-15
  9  4.73230786307977622e-08
 10  3.02653529066784333e-01
 11  4.07962710480604121e-16
 12  2.07704964681502488e-08
 13  1.17974292545433249e-01
 14  1.95948448704656041e-15
 15 -3.52609746289242717e-09
 16 -1.31721153139691783e-16
 17  5.18739564570340440e-17
 18 -1.48780859848943412e-10
 19  1.22828012583787796e-02
 20  2.32036486099339199e-09
 21  4.38869950154153064e-16
 22 -3.29141099109907234e-17
 23  5.83757619255683244e-09
 24  2.71143450242855993e-02
 25 -1.12805606929322175e-16
 26 -1.16037844478292411e-09
 27 -5.70274074270083614e-03
 28  4.03314571505596498e-17
 29 -7.46966315707023178e-17
 30 -1.21055528656897053e-09
 31  1.82411734110496512e-04
 32  1.48642140662195804e-01
 33  1.86624713233949496e-01
 34  6.48580537615259384e-02
 35 -1.46110063593942498e-02
 36 -5.99390993151421077e-03
 37  5.58520190927841647e-17
 38 -1.48642117870931928e-01
 39 -1.86624735783940870e-01
 40 -6.48580807539165666e-02
 41  1.46109988944531435e-02
 42 -5.99391121936451721e-03
 43  2.88246896980429464e-17
 Sym= A
 Ene= -3.37938037938002034e-01
 Spin= Alpha
 Occup=  1.00000000000000000e+00
  1 -3.71296176744670414e-02
  2 -8.99105859900248688e-02
  3  1.42444506514579322e-01
  4  1.93413165656063979e-01
  5  2.31569083571376871e-01
  6 -4.12358017464988402e-01
  7  5.95343432806792322e-08
  8  1.07162240884761839e-15
  9 -3.25911929339178896e-01
 10  6.59787752244560175e-08
 11  9.07919275880057468e-16
 12 -2.32928271484825533e-01
 13  3.46667207750536015e-08
 14  5.01205375129100497e-16
 15  4.67188966664860809e-03
 16 -1.01628389184795978e-16
 17  1.64420774498458508e-16
 18 -3.14635885647251328e-03
 19 -2.12252894320010820e-09
 20  1.34782350586016651e-02
 21 -1.25489017731350641e-16
 22 -1.82408561737513306e-16
 23 -2.07146015684633381e-02
 24  5.24056651465443963e-09
 25  1.36690310910349973e-16
 26  3.83865955488958731e-03
 27 -7.34851540219328217e-10
 28 -7.02794714234845909e-17
 29  7.76739214266247026e-18
 30  2.30741598770924181e-03
 31 -1.63146702330309029e-09
 32 -8.68318395858577313e-02
 33 -1.24964213952948738e-01
 34 -4.66934153014871914e-02
 35 -1.16270441117515798e-02
 36  1.44174209913101089e-02
 37 -1.72447102853421766e-16
 38 -8.68318622565938114e-02
 39 -1.24964285788920215e-01
 40 -4.66934861236329504e-02
 41 -1.16270419873527094e-02
 42 -1.44174148106870348e-02
 43  1.04047523627460146e-16
 Sym= A
 Ene= -2.60296318852111686e-01
 Spin= Alpha
 Occup=  1.00000000000000000e+00
  1 -9.66214057570185581e-17
  2 -2.59434810946555609e-16
  3 -2.79989282956722875e-16
  4  3.36218186520527916e-15
  5 -2.75015160743610940e-15
  6 -1.37424507679787326e-15
  7  1.40606210939274935e-17
  8 -4.73372250179815324e-01
  9  7.38639880928682068e-17
 10  1.27015971118108173e-15
 11 -3.87312012452370069e-01
 12 -1.16244684242384333e-15
 13  7.46726568122654577e-17
 14 -3.38076529296054418e-01
 15 -3.62731983278030787e-17
 16 -4.75927536869726747e-03
 17 -2.36118369078146152e-09
 18  6.91764447828472596e-17
 19  6.19084451437116605e-17
 20 -7.32552151129776068e-16
 21 -2.51926135580346593e-02
 22 -2.12163770970308813e-09
 23 -4.76212047800673276e-16
 24  2.83555711642653790e-16
 25  5.16972235574285864e-03
 26  3.66455442049393702e-16
 27 -5.52188958913002460e-17
 28  1.41640935859777906e-03
 29 -1.31140172173353239e-09
 30 -1.55843913537198849e-16
 31  1.22882621879258156e-16
 32  3.76007130802352837e-16
 33  5.93369399628167578e-16
 34  1.92221998145226759e-15
 35  4.27279865933674160e-16
 36  5.17546358185952978e-16
 37 -2.47688210225582919e-02
 38 -8.14197981539564082e-17
 39 -1.93366355530603593e-15
 40  9.03406547799444551e-16
 41  6.80400441614547580e-17
 42 -2.05274728588556650e-16
 43 -2.47688107378452906e-02
 Sym= A
 Ene=  1.19718326960756398e-02
 Spin= Alpha
 Occup=  0.00000000000000000e+00
  1  3.42213196286765622e-02
  2  8.72077604280326324e-02
  3 -2.00286562632724763e-01
  4  2.47341428050730748e-02
  5 -1.14540062004025844e+00
  6 -1.70620991306647263e-01
  7  2.71792835437106470e-07
  8 -2.09639442015462297e-16
  9 -1.22876549505263458e-01
 10  2.37726259139796469e-07
 11  5.92373182066082246e-16
 12 -3.30644188724038945e-01
 13  4.71713111582036826e-07
 14  4.23626648655994902e-16
 15 -8.35433161312501777e-04
 16 -1.18086732457833396e-16
 17  2.59625672312861812e-17
 18 -2.73499340561908673e-03
 19 -3.79890453465130638e-09
 20 -3.40181798392857329e-03
 21  3.39293434386680230e-16
 22 -1.42995936098220547e-16
 23 -1.16607689937458011e-02
 24  7.11971313487332476e-09
 25 -1.61498142169645588e-17
 26  7.59624822079614861e-04
 27 -1.61154880084944078e-09
 28 -2.54128775576994182e-17
 29  6.76745603882542140e-18
 30 -2.59164861563309778e-04
 31 -2.98051519452535070e-09
 32  4.17839193558436003e-02
 33  1.11549819448922366e-01
 34  9.17065492148377959e-01
 35  1.90565506137141023e-02
 36  2.88311236727075530e-02
 37 -1.75947583527367277e-16
 38  4.17840757076294936e-02
 39  1.11550184111727430e-01
 40  9.17066762527236068e-01
 41  1.90565647318659270e-02
 42 -2.88311192377928016e-02
 43 -4.90474070090310502e-17
 Sym= A
 Ene=  8.65364677421054662e-02
 Spin= Alpha
 Occup=  0.00000000000000000e+00
  1  1.96417624260089326e-08
  2  5.29688366159138501e-08
  3 -1.70164112143124875e-07
  4  2.73640782000733622e-07
  5 -1.26290301111991575e-06
  6 -5.26147308935775052e-08
  7 -2.66501235973604367e-01
  8 -1.99198437413349963e-16
  9  4.50849224159048748e-08
 10 -1.30598374741635798e-01
 11  5.93061217852961114e-16
 12 -2.21520999313611525e-07
 13 -6.85267504596405619e-01
 14 -4.32224723341966430e-17
 15  2.07883178487806235e-09
 16  1.01817768352148963e-16
 17  2.23289154101348323e-16
 18  2.20145395097585940e-09
 19  1.65253030619761884e-03
 20 -1.32387655047828923e-08
 21 -2.69847001511288466e-16
 22 -2.52012127180115492e-17
 23  1.14369263111652812e-09
 24  2.53911759679453855e-02
 25  4.64825358904302215e-17
 26 -1.18864747297480150e-10
 27 -9.95376280591907882e-05
 28 -5.64967942265152794e-17
 29  2.21424475250140165e-16
 30  3.96820826542380238e-10
 31  3.29673897425524377e-03
 32  3.81232472139895473e-02
 33  5.21155724769432754e-02
 34  1.59874037919673806e+00
 35  3.31106895777371069e-02
 36  3.52260493958404947e-02
 37 -2.46566069578434112e-16
 38 -3.81233308282693945e-02
 39 -5.21158681236271390e-02
 40 -1.59873855587498515e+00
 41 -3.31106109627875914e-02
 42  3.52259828261699826e-02
 43  1.09026823686584185e-16
 Sym= A
 Ene=  3.44595032195744888e-01
 Spin= Alpha
 Occup=  0.00000000000000000e+00
  1  5.03802894057828012e-08
  2  1.13840282732501714e-07
  3 -6.19884653191009933e-08
  4 -8.00183137093934266e-07
  5  6.64426439884982592e-07
  6 -3.23271245507097104e-07
  7  1.31197165779944114e-01
  8  1.35137936448521077e-16
  9 -4.48655866208641984e-07
 10  3.75633179238348880e-01
 11 -1.65805680414980886e-16
 12 -3.03860530443438463e-07
 13  1.08403779649256338e+00
 14 -1.22061496870415616e-15
 15 -2.33025757749749483e-08
 16 -1.08117063565973954e-16
 17  1.03940956625672740e-16
 18 -2.34875275238705083e-08
 19 -3.21130336140837067e-02
 20 -2.10638152836875036e-08
 21 -2.33113410487698101e-16
 22 -1.01928775349697551e-16
 23 -2.32323259331636813e-08
 24  1.09321742081591997e-01
 25  9.15333312146698384e-17
 26  1.36060998166396813e-09
 27 -1.10116939486438001e-02
 28 -8.82763635823964458e-17
 29  1.32033042137746165e-16
 30  6.39899104107999733e-09
 31  2.51363228927352052e-03
 32 -1.25318149561694375e-01
 33 -1.43985230131731057e+00
 34  6.51428083251206047e-01
 35  3.97862190584201691e-02
 36  8.70716311316153679e-02
 37 -2.89426379837150032e-16
 38  1.25318529877516321e-01
 39  1.43985638449472830e+00
 40 -6.51431337132438726e-01
 41 -3.97862604117229721e-02
 42  8.70716069901212864e-02
 43 -3.39705330185115337e-16
 Sym= A
 Ene=  3.94447363542588858e-01
 Spin= Alpha
 Occup=  0.00000000000000000e+00
  1 -3.67845273208972645e-02
  2 -8.20853488050063418e-02
  3 -1.36494478301760463e-02
  4  8.92587686032068617e-01
  5  4.87730213927001943e-01
  6  2.29170336014702276e-02
  7  7.17771821517464487e-08
  8  2.64945590003375833e-15
  9  1.38675692687640684e-01
 10  7.46788250007444397e-07
 11  5.94937503621615822e-15
 12  1.17493659976763221e+00
 13  2.97190300341191749e-06
 14 -1.08135556997736195e-14
 15  1.95418535896421663e-02
 16  2.50110042349454502e-16
 17  3.53741172440103009e-18
 18  7.53090406949952045e-03
 19 -6.42293759508373604e-08
 20 -5.82557663177170684e-02
 21 -5.90169523185552145e-16
 22  2.58050600101151653e-16
 23  4.13772528059707431e-03
 24  3.53759585953409581e-07
 25  5.10094113140335563e-17
 26 -6.46779983881294422e-03
 27 -2.76703754751235733e-08
 28 -6.33341196994688556e-18
 29  1.87942706698377177e-17
 30 -1.33950609894432741e-02
 31  1.56091037126222361e-08
 32 -1.05036641344382245e-01
 33 -1.58676904865242219e+00
 34  5.48365955720099607e-01
 35  6.82301310832996999e-02
 36  6.22343140280211121e-02
 37  3.52064367147665579e-17
 38 -1.05036243626608447e-01
 39 -1.58676331954813921e+00
 40  5.48366170685963161e-01
 41  6.82298151913619116e-02
 42 -6.22337997468359605e-02
 43  2.78931318740416067e-16
 Sym= A
 Ene=  4.18867435950759370e-01
 Spin= Alpha
 Occup=  0.00000000000000000e+00
  1 -1.55236347970599066e-16
  2 -2.62962052153363141e-16
  3  2.26916589292968869e-15
  4 -1.11346173561439729e-14
  5  5.67988426628263373e-15
  6 -6.92252782601285150e-14
  7  2.05086505032614403e-16
  8  3.25013994446379684e-01
  9 -1.47538261671344005e-13
 10 -1.39286108949879793e-15
 11  6.92886802696634496e-01
 12  2.00551440248898774e-13
 13 -3.83486895706875959e-17
 14 -1.22837411128513252e+00
 15 -9.79881862736300912e-17
 16  6.90026189794769058e-03
 17  2.45558134116087611e-09
 18 -1.95225662701051231e-15
 19  4.86827914978703167e-16
 20 -2.48103358017856316e-15
 21 -7.38556683259279818e-03
 22  2.41828990060081881e-09
 23 -5.74277521802970874e-16
 24 -6.66727904729545223e-16
 25 -2.12724149328100305e-03
 26  2.00305297368765572e-16
 27 -2.00880322992706733e-16
 28 -7.67379410581265384e-04
 29 -4.52909711631610311e-11
 30  7.37541208756637702e-16
 31  4.57307660893995511e-16
 32  1.36296985742103826e-14
 33  9.73819581202740108e-14
 34 -1.01270599963985016e-13
 35 -3.13106645391150099e-15
 36  1.27951942369153341e-15
 37  1.80132158524925405e-03
 38  1.31360066378482896e-14
 39  9.27838455547306414e-14
 40 -9.76311914008926526e-14
 41 -2.32776897343361821e-15
 42 -1.16156813620500160e-15
 43  1.80129026242892287e-03
 Sym= A
 Ene=  4.21564109949366439e-01
 Spin= Alpha
 Occup=  0.00000000000000000e+00
  1  2.62201913650186554e-03
  2  4.86746637412335380e-03
  3 -2.09342041142005896e-03
  4 -1.86439141531547711e-02
  5  1.94782430528848242e-02
  6  3.46896778928779126e-01
  7  2.69680767432620489e-08
  8  6.47405811940066323e-14
  9  7.33987412571416642e-01
 10  3.56940120312969546e-07
 11  1.37887465646157837e-13
 12 -1.03562169510699453e+00
 13  1.73567760773054489e-06
 14 -2.45442482392682193e-13
 15 -9.35216628878755737e-05
 16  1.18784140035571743e-15
 17  8.91929341056172784e-17
 18  9.24009096014943680e-03
 19 -3.66424443383283393e-08
 20  1.17464275252280245e-02
 21 -1.17083360751261830e-15
 22  1.20075270467187202e-16
 23  1.93684220315685747e-03
 24  1.93651507253181223e-07
 25 -4.06475082049011670e-16
 26 -2.04277391993795080e-03
 27 -2.05210804721016561e-08
 28 -1.74759071865443885e-16
 29  3.33683673385644398e-17
 30 -3.06676660931318830e-03
 31  8.88405739220757360e-09
 32 -6.01598014745634291e-02
 33 -4.26782898984042980e-01
 34  4.64108764375778859e-01
 35  1.18603034616107297e-02
 36 -6.72873914752793699e-03
 37  5.63509189182210094e-16
 38 -6.01595906552182327e-02
 39 -4.26779674519999930e-01
 40  4.64108639788407662e-01
 41  1.18601046484416110e-02
 42  6.72903387490045302e-03
 43  7.24112244015938064e-16
 Sym= A
 Ene=  5.57900975699305524e-01
 Spin= Alpha
 Occup=  0.00000000000000000e+00
  1  3.09611309845521114e-08
  2  6.40387065985933804e-08
  3  2.29382884794865240e-08
  4 -1.45572772072683459e-06
  5  4.45114522128504783e-06
  6  3.92834699399143078e-08
  7  3.52989140555983461e-01
  8 -6.78261895265390621e-18
  9  3.63780993132559063e-07
 10  7.22994596677284385e-01
 11 -5.94860794138992092e-17
 12  1.42735579737791809e-06
 13 -2.09535962424502697e+00
 14 -1.30608615713065512e-15
 15  2.68239591553596293e-08
 16 -1.12884882869083223e-16
 17  3.27690406634353501e-17
 18  1.18903508661533413e-08
 19  1.23821059140584496e-02
 20 -9.31608777718527249e-08
 21 -2.12787298042954191e-17
 22 -7.24811123231371615e-16
 23 -1.64512074863813790e-08
 24 -6.48321523892429752e-02
 25 -1.36283275485497684e-16
 26 -1.47037868290949303e-08
 27  1.92592344928564640e-03
 28 -1.02747038309016890e-16
 29 -2.96398607983253083e-16
 30 -3.19200108716628858e-08
 31 -2.72571606431579704e-03
 32 -5.58358332434738536e-02
 33 -2.34271666106483437e-02
 34  1.61617443299551589e+00
 35 -2.97456128129497677e-02
 36 -3.41768631145271187e-02
 37  2.19178981108069408e-16
 38  5.58358093146753484e-02
 39  2.34233206542798986e-02
 40 -1.61617524458869966e+00
 41  2.97458682026602687e-02
 42 -3.41771294066930686e-02
 43  5.63660799916300799e-16
 Sym= A
 Ene=  5.85466776600699457e-01
 Spin= Alpha
 Occup=  0.00000000000000000e+00
  1 -5.13123193246002376e-02
  2 -1.08219350443501353e-01
  3 -8.07552476832404942e-02
  4  2.21238509245162041e+00
  5 -4.82175170184339041e+00
  6  7.06004173498668008e-02
  7  3.46340871835319222e-07
  8  1.62283443628486605e-15
  9 -1.13846807753169525e-02
 10  5.68539604266440699e-07
 11  1.77349828583030188e-16
 12 -1.25555676363446822e+00
 13 -2.21134477450706347e-06
 14 -2.05785390631903163e-15
 15 -1.70313865989362330e-02
 16  1.83765402216395448e-16
 17  1.07938089944383802e-17
 18 -6.09523847569874277e-03
 19  9.75949110644175930e-09
 20  5.07189370590661950e-02
 21 -2.66726274155248179e-16
 22  1.19192915033988346e-15
 23  2.57701181897652531e-04
 24 -9.31424457634821342e-08
 25  1.97987284176433760e-17
 26  5.19577518896850547e-03
 27 -2.92841475105537709e-09
 28  4.54695048624074052e-18
 29 -7.65884461944658063e-18
 30  1.16131563012689329e-02
 31 -3.81679696499868883e-09
 32 -1.86111754620113291e-02
 33  9.32885925741693378e-01
 34  9.60513386289423843e-01
 35 -6.67765352983867855e-02
 36 -5.53623657764565069e-02
 37  7.00394741535506473e-16
 38 -1.86110653660526496e-02
 39  9.32885793926863549e-01
 40  9.60508851578734890e-01
 41 -6.67764608472463106e-02
 42  5.53622833263448799e-02
 43  5.48131375123724790e-16
 Sym= A
 Ene=  1.15396509221182009e+00
 Spin= Alpha
 Occup=  0.00000000000000000e+00
  1  3.53768766766895384e-03
  2  9.21323992258740385e-03
  3 -3.57346233078030678e-02
  4 -8.26368016573832964e-02
  5  9.09497342652683338e-01
  6  8.14375682022314834e-02
  7 -1.78926247512002941e-08
  8  8.09029483756577077e-16
  9  1.45170104404426764e-01
 10  1.57685338174966680e-07
 11  9.75440159167841972e-16
 12  5.67027892059897787e-01
 13  2.52681792720729587e-07
 14  2.18262259479411271e-15
 15  5.54899854222412289e-04
 16 -1.25104474219082909e-17
 17 -6.91939378114415431e-16
 18 -1.61571537280137054e-02
 19  1.25115135535324697e-09
 20  1.44575264538408382e-01
 21 -7.76778864101522474e-15
 22 -3.33471340574229425e-14
 23 -5.17174770869633704e-01
 24  2.37334809920294199e-07
 25 -1.51821445603853326e-17
 26 -2.78177992062354469e-03
 27 -2.67234412448472311e-09
 28 -3.92054708203127239e-17
 29  6.19097739555399034e-16
 30 -8.79800241957619938e-03
 31  3.21946090127779048e-08
 32  3.56787706226863038e-02
 33 -5.76926550130251514e-01
 34 -5.08170804170751320e-02
 35 -2.99339455986229352e-01
 36  2.92442701830000318e-01
 37 -2.97976268269229908e-14
 38  3.56787711782806591e-02
 39 -5.76925699561255945e-01
 40 -5.08169181291174554e-02
 41 -2.99339773012745280e-01
 42 -2.92442567771457884e-01
 43  2.20699512268118173e-14
 Sym= A
 Ene=  1.17455354591964278e+00
 Spin= Alpha
 Occup=  0.00000000000000000e+00
  1  1.74363888822090993e-16
  2  3.60048679350609598e-16
  3  4.43550927527043591e-16
  4 -1.19283550588657921e-14
  5  6.41946035683412890e-14
  6  4.09107891342927894e-15
  7  7.17260349420733797e-16
  8  2.37754625620597843e-08
  9  8.95384584392934388e-15
 10 -3.74713250141989772e-15
 11 -1.44385368601955125e-07
 12  3.62497220337282179e-14
 13 -4.59425138987132634e-15
 14  1.83581517414629593e-07
 15  6.25516603069228866e-17
 16  2.37946679433208158e-09
 17  1.32946331641857554e-02
 18 -1.19188105090383084e-15
 19  9.90972835040700184e-17
 20  1.06106141721021486e-14
 21 -2.57000537644071598e-07
 22  5.52425262491709312e-01
 23 -3.22150397502832064e-14
 24 -4.43095153149720639e-15
 25  1.57939058183274889e-08
 26 -9.35623359228087690e-17
 27  3.59444952842046760e-16
 28 -3.63627834246313606e-09
 29 -8.57594975424485519e-03
 30 -7.66322140373028267e-16
 31 -1.86948411011814125e-16
 32  1.49599499889677976e-15
 33 -2.89876064179356425e-14
 34 -4.00199076499694714e-15
 35 -1.95413694436088658e-14
 36  1.54916549101631387e-14
 37  4.14531068584841844e-01
 38  4.56919722342155469e-15
 39 -4.46453746516700208e-14
 40 -5.25137672859300460e-15
 41 -1.65321392235995753e-14
 42 -1.97386344561292420e-14
 43 -4.14531462243798443e-01
 Sym= A
 Ene=  1.28184137785264674e+00
 Spin= Alpha
 Occup=  0.00000000000000000e+00
  1  1.44106815151641864e-16
  2  5.12228107258434706e-16
  3 -9.67052154618355812e-16
  4 -7.08421138047376909e-15
  5  1.92594705345539398e-14
  6 -6.71177014038041848e-16
  7 -1.50315457449768685e-15
  8 -9.78501616159659082e-02
  9  1.76426822721040250e-16
 10  6.59114801654121746e-15
 11 -4.51156500403191857e-02
 12  1.03282278115484257e-14
 13  5.84089540034217468e-15
 14 -2.08740884916540331e-01
 15 -6.13307863880564113e-17
 16  6.18622979925540634e-03
 17  1.02799018485306619e-08
 18 -1.99852872470734921e-16
 19 -2.52409705585429748e-16
 20  1.82710875724307239e-15
 21  6.85471680915611059e-01
 22  1.76252717349112639e-07
 23 -5.15048321860084498e-15
 24  5.58923139255730330e-15
 25  3.25814169907838328e-03
 26  3.08113496659184669e-16
 27 -1.08848262027339383e-16
 28  1.41070945364954702e-02
 29 -2.38173632513178988e-08
 30  3.85161375057694087e-17
 31  2.79474748521750016e-16
 32  2.05639584665196112e-15
 33 -1.90227610180162283e-14
 34 -1.20204157516271007e-15
 35 -1.63022749614078016e-15
 36  2.95830561278087643e-15
 37  3.68983463930287914e-01
 38 -2.84359671609445467e-15
 39  6.66817170199987533e-15
 40 -5.19926920353806002e-15
 41 -8.70189688965526722e-15
 42 -5.46610078664689236e-16
 43  3.68983146395100603e-01
 Sym= A
 Ene=  1.51713488373643424e+00
 Spin= Alpha
 Occup=  0.00000000000000000e+00
  1  1.82291257019328425e-08
  2  7.28889892518192009e-08
  3 -1.00161952903982397e-06
  4  3.65206294423963281e-06
  5  2.75175106970650459e-06
  6 -2.42067365711815380e-07
  7 -1.17397058345268285e-01
  8 -1.36656384900940306e-15
  9  1.88819439520551908e-06
 10  9.35546041328206068e-01
 11  7.61390376155796858e-16
 12  1.37503197076582144e-06
 13  9.63456217799385395e-01
 14 -1.27817358286315485e-15
 15 -5.13332274679149364e-09
 16  9.52680317541661715e-17
 17  5.74923755885030935e-17
 18 -2.18231445082795047e-10
 19 -4.89301179576660892e-03
 20 -1.20628314303066444e-06
 21 -6.19539576045426124e-15
 22  1.73303116351988855e-15
 23 -2.01255372403317554e-07
 24  1.22723777340447748e+00
 25  7.87672222989342851e-17
 26 -9.29402894478427039e-08
 27 -5.45839471701906470e-02
 28  1.43572075846719913e-16
 29 -1.61877331564769002e-16
 30 -1.67595345315119332e-07
 31  3.96682185029910220e-02
 32  3.55430900404257344e-01
 33 -2.19140222962826403e+00
 34  5.16735796917892176e-01
 35  4.17137939141891345e-01
 36  1.84984416663216050e-01
 37  1.85363332409445937e-15
 38 -3.55430332400504978e-01
 39  2.19139431652601546e+00
 40 -5.16735233974264352e-01
 41 -4.17136410846274508e-01
 42  1.84982592378817257e-01
 43 -1.54989629295177145e-15
 Sym= A
 Ene=  1.62106527886188867e+00
 Spin= Alpha
 Occup=  0.00000000000000000e+00
  1 -1.51931853699206910e-02
  2 -5.16045376560198693e-02
  3  3.97761026674263052e-01
  4 -7.03951639300053222e-01
  5 -1.84354781717877692e+00
  6  9.38343999360757158e-02
  7  2.30222180123868106e-08
  8  2.65965597739757955e-17
  9 -5.09507562678498171e-01
 10 -8.41649856722944979e-07
 11 -9.07203427599176361e-17
 12 -9.41092524713828205e-01
 13  5.54627445830385660e-07
 14 -3.66953903293031233e-16
 15  5.56752640507946362e-04
 16  2.75265122222430687e-16
 17 -3.36769992476136561e-18
 18  3.13685222925810586e-03
 19  4.69078094636653151e-09
 20  1.12192991026254307e+00
 21 -9.70776252828573833e-16
 22 -2.87017970130930164e-17
 23  2.93822409392498762e-01
 24  2.62683349303231488e-07
 25  9.60711446572872359e-17
 26  3.77488584097109281e-02
 27  2.99897195851738025e-08
 28 -3.08353090514947797e-17
 29 -1.92090744564610751e-16
 30  5.47453934911053472e-02
 31 -2.77735376326551542e-08
 32 -3.25801962934502976e-01
 33  2.05996648821464445e+00
 34 -1.88536575241933541e-01
 35 -1.36254162925415423e-01
 36 -2.23858121547191563e-01
 37 -5.91015055696044508e-16
 38 -3.25802677379144756e-01
 39  2.05996642169028332e+00
 40 -1.88537109102438372e-01
 41 -1.36254125522431963e-01
 42  2.23856717601478294e-01
 43  1.83933448120895047e-15
 Sym= A
 Ene=  1.75056876532780104e+00
 Spin= Alpha
 Occup=  0.00000000000000000e+00
  1 -2.14493553409657888e-09
  2  5.81243391000107120e-10
  3 -2.47748614432426605e-07
  4  1.38110232325660615e-06
  5 -7.67273817081703359e-07
  6 -1.24297551597189335e-07
  7 -1.69705424223728252e-01
  8 -6.62330293387780121e-16
  9  8.45724943245453912e-07
 10  3.10659905215031562e-01
 11  3.28027083932933945e-16
 12 -4.77424241876359162e-07
 13 -3.89509866215598632e-01
 14 -2.70910904206017201e-16
 15  1.32014507175792341e-09
 16 -9.49056705627478438e-17
 17  1.84987179504286132e-16
 18 -2.03024929242843605e-08
 19 -1.13987871142025889e-02
 20  4.35745933288318724e-07
 21  6.75491889607788329e-16
 22 -1.27472263749170163e-15
 23 -2.61775239403547771e-08
 24  4.53914452485420228e-01
 25  3.59107240595353866e-17
 26 -3.61920246721843549e-08
 27 -1.99764863764964780e-02
 28  1.68591881396302317e-16
 29  1.05603204408749572e-16
 30 -3.34033629962477148e-08
 31  1.95660239761336271e-02
 32  1.12937090939221219e-01
 33 -4.45749642964656523e-01
 34  3.66449945608506189e-01
 35 -5.28265071901401262e-01
 36  5.75301856388520494e-01
 37  1.74155753869992517e-15
 38 -1.12937062869610028e-01
 39  4.45749113736977620e-01
 40 -3.66449577221250322e-01
 41  5.28265869631597829e-01
 42  5.75301213762747121e-01
 43 -1.60815873444239339e-15
 Sym= A
 Ene=  1.99130109460597993e+00
 Spin= Alpha
 Occup=  0.00000000000000000e+00
  1  1.54444722201107706e-02
  2  6.63583351671410832e-02
  3 -8.39919242670051136e-01
  4  2.62929785745878464e+00
  5 -1.30116322782678900e-01
  6 -4.44835305203148790e-01
  7 -1.00910238644717207e-07
  8 -1.78301888970609580e-15
  9  1.38355799400613710e+00
 10  1.96869780459029257e-06
 11  2.94500849213273356e-15
 12 -7.67851535508994459e-02
 13 -3.67656478638008437e-07
 14 -5.98933518027633077e-16
 15  8.01864637238140256e-03
 16 -6.09632808638665245e-17
 17 -9.51274318354610820e-17
 18  1.37073005999057231e-03
 19  2.52888858542719179e-08
 20  9.99693386882491847e-02
 21  2.80442821733298791e-15
 22  7.35105964659413568e-15
 23 -2.58463404801431429e-01
 24 -2.27545639584606026e-07
 25  2.88339018210184131e-17
 26 -6.85454304968228789e-02
 27 -5.19730851527871170e-08
 28  1.83375764598130645e-16
 29  2.00425007585824587e-16
 30 -1.49634256586716252e-01
 31  5.70585006768338536e-08
 32  6.37151374245189306e-01
 33 -1.93321948122615783e+00
 34  5.10965512054431859e-01
 35  6.15058714607833790e-01
 36  5.53877735491005940e-01
 37 -7.71296691305312377e-15
 38  6.37152239088543015e-01
 39 -1.93321766079123036e+00
 40  5.10965244273745345e-01
 41  6.15056601430137517e-01
 42 -5.53876352109330838e-01
 43  4.47237584784621357e-15
 Sym= A
 Ene=  2.05285809389932306e+00
 Spin= Alpha
 Occup=  0.00000000000000000e+00
  1  4.07074339266962180e-16
  2  1.05190601081557834e-15
  3 -5.38964225973799497e-15
  4  3.66882293211180253e-15
  5 -2.74662505573027016e-15
  6 -5.27815092402206079e-15
  7 -6.53095122576616767e-15
  8 -3.37840825477221829e-01
  9  4.71234623666325093e-15
 10  2.09751431107880102e-14
 11  1.83443093833861870e-01
 12 -2.92246714160494467e-15
 13 -6.59033704561328675e-15
 14 -4.95826615282608407e-01
 15 -1.26569857320857089e-16
 16  3.90141760058769623e-03
 17 -1.07890699586821239e-08
 18 -5.18585942652127120e-17
 19 -4.20150529762097731e-16
 20  7.56886730975778791e-16
 21 -8.62986650246721054e-01
 22  3.47999027929948303e-06
 23 -1.34861632187813255e-15
 24 -2.58035631708305177e-15
 25 -5.35529772948353279e-03
 26  5.13091230718806084e-17
 27 -1.05075564375082903e-15
 28 -1.60869134409337457e-02
 29 -5.62600702060040886e-08
 30  2.84955907982805847e-16
 31  1.59210481491700241e-16
 32  3.32084301711630633e-15
 33 -9.92609624288941527e-15
 34  4.58935809960454367e-15
 35  5.54456670589893529e-15
 36  4.37023664583284267e-15
 37  7.55107541467066490e-01
 38 -2.81462772002361668e-15
 39  1.13804077186119885e-14
 40 -3.68034795017506432e-15
 41 -6.10865154363918821e-15
 42  8.82419010743039476e-15
 43  7.55112327993458843e-01
 Sym= A
 Ene=  2.10289181648479362e+00
 Spin= Alpha
 Occup=  0.00000000000000000e+00
  1  2.41382057841495434e-16